<?xml version="1.0" encoding="UTF-8"?>

<!-- generated on 2024-05-02 01:24:31 by Eclipse SUMO GUI Version 1.19.0
<configuration xmlns:xsi="http://www.w3.org/2001/XMLSchema-instance" xsi:noNamespaceSchemaLocation="http://sumo.dlr.de/xsd/sumoConfiguration.xsd">

    <input>
        <net-file value="/home/poison/RL/Final/test5/test5.net.xml"/>
        <route-files value="/home/poison/RL/Final/test5/route_gen.rou.xml"/>
    </input>

    <output>
        <tripinfo-output value="tripinfo_dqn.xml"/>
    </output>

    <traci_server>
        <remote-port value="60723"/>
    </traci_server>

</configuration>
-->

<tripinfos xmlns:xsi="http://www.w3.org/2001/XMLSchema-instance" xsi:noNamespaceSchemaLocation="http://sumo.dlr.de/xsd/tripinfo_file.xsd">
</tripinfos>
