<?xml version="1.0" encoding="UTF-8"?>

<!-- generated on 2024-05-05 18:28:36 by Eclipse SUMO sumo Version 1.19.0
<configuration xmlns:xsi="http://www.w3.org/2001/XMLSchema-instance" xsi:noNamespaceSchemaLocation="http://sumo.dlr.de/xsd/sumoConfiguration.xsd">

    <input>
        <net-file value="twoone.net.xml"/>
        <route-files value="route_gen.rou.xml"/>
    </input>

    <output>
        <tripinfo-output value="tripinfo_epi479.xml"/>
    </output>

    <report>
        <no-warnings value="true"/>
    </report>

    <traci_server>
        <remote-port value="48185"/>
    </traci_server>

</configuration>
-->

<tripinfos xmlns:xsi="http://www.w3.org/2001/XMLSchema-instance" xsi:noNamespaceSchemaLocation="http://sumo.dlr.de/xsd/tripinfo_file.xsd">
    <tripinfo id="WE_5" depart="5.00" departLane="1i_0" departPos="4.10" departSpeed="0.00" departDelay="0.00" arrival="80.00" arrivalLane="2o_0" arrivalPos="492.80" arrivalSpeed="11.52" duration="75.00" routeLength="995.90" waitingTime="0.00" waitingCount="0" stopTime="0.00" timeLoss="7.53" rerouteNo="0" devices="tripinfo_WE_5" vType="car" speedFactor="1.06" vaporized=""/>
    <tripinfo id="NS_10" depart="10.00" departLane="2i_0" departPos="4.10" departSpeed="0.00" departDelay="0.00" arrival="91.00" arrivalLane="3o_0" arrivalPos="492.80" arrivalSpeed="10.65" duration="81.00" routeLength="995.70" waitingTime="0.00" waitingCount="0" stopTime="0.00" timeLoss="10.32" rerouteNo="0" devices="tripinfo_NS_10" vType="car" speedFactor="1.01" vaporized=""/>
    <tripinfo id="NS_17" depart="17.00" departLane="2i_0" departPos="4.10" departSpeed="0.00" departDelay="0.00" arrival="93.00" arrivalLane="3o_0" arrivalPos="492.80" arrivalSpeed="11.97" duration="76.00" routeLength="995.70" waitingTime="0.00" waitingCount="0" stopTime="0.00" timeLoss="10.59" rerouteNo="0" devices="tripinfo_NS_17" vType="car" speedFactor="1.08" vaporized=""/>
    <tripinfo id="SN_21" depart="21.00" departLane="3i_0" departPos="4.10" departSpeed="0.00" departDelay="0.00" arrival="100.00" arrivalLane="2o_0" arrivalPos="492.80" arrivalSpeed="11.16" duration="79.00" routeLength="990.53" waitingTime="2.00" waitingCount="1" stopTime="0.00" timeLoss="11.62" rerouteNo="0" devices="tripinfo_SN_21" vType="car" speedFactor="1.05" vaporized=""/>
    <tripinfo id="WE_7" depart="9.00" departLane="1i_0" departPos="10.10" departSpeed="0.00" departDelay="2.00" arrival="101.00" arrivalLane="4o_0" arrivalPos="492.80" arrivalSpeed="10.54" duration="92.00" routeLength="989.70" waitingTime="1.00" waitingCount="1" stopTime="0.00" timeLoss="19.34" rerouteNo="0" devices="tripinfo_WE_7" vType="truck" speedFactor="0.97" vaporized=""/>
    <tripinfo id="NS_24" depart="24.00" departLane="2i_0" departPos="4.10" departSpeed="0.00" departDelay="0.00" arrival="103.00" arrivalLane="1o_0" arrivalPos="492.80" arrivalSpeed="11.46" duration="79.00" routeLength="995.90" waitingTime="1.00" waitingCount="1" stopTime="0.00" timeLoss="13.50" rerouteNo="0" devices="tripinfo_NS_24" vType="car" speedFactor="1.09" vaporized=""/>
    <tripinfo id="WE_18" depart="18.00" departLane="1i_0" departPos="4.10" departSpeed="0.00" departDelay="0.00" arrival="104.00" arrivalLane="4o_0" arrivalPos="492.80" arrivalSpeed="10.26" duration="86.00" routeLength="995.70" waitingTime="0.00" waitingCount="0" stopTime="0.00" timeLoss="16.70" rerouteNo="0" devices="tripinfo_WE_18" vType="car" speedFactor="1.03" vaporized=""/>
    <tripinfo id="NS_33" depart="33.00" departLane="2i_0" departPos="4.10" departSpeed="0.00" departDelay="0.00" arrival="115.00" arrivalLane="1o_0" arrivalPos="492.80" arrivalSpeed="10.30" duration="82.00" routeLength="995.90" waitingTime="0.00" waitingCount="0" stopTime="0.00" timeLoss="10.30" rerouteNo="0" devices="tripinfo_NS_33" vType="car" speedFactor="0.99" vaporized=""/>
    <tripinfo id="WE_21" depart="21.00" departLane="1i_0" departPos="4.10" departSpeed="0.00" departDelay="0.00" arrival="116.00" arrivalLane="2o_0" arrivalPos="492.80" arrivalSpeed="8.99" duration="95.00" routeLength="995.90" waitingTime="0.00" waitingCount="0" stopTime="0.00" timeLoss="9.24" rerouteNo="0" devices="tripinfo_WE_21" vType="car" speedFactor="0.83" vaporized=""/>
    <tripinfo id="WE_23" depart="24.00" departLane="1i_0" departPos="4.10" departSpeed="0.00" departDelay="1.00" arrival="116.00" arrivalLane="4o_0" arrivalPos="492.80" arrivalSpeed="9.42" duration="92.00" routeLength="995.70" waitingTime="0.00" waitingCount="0" stopTime="0.00" timeLoss="11.64" rerouteNo="0" devices="tripinfo_WE_23" vType="car" speedFactor="0.89" vaporized=""/>
    <tripinfo id="SN_23" depart="23.00" departLane="3i_0" departPos="4.10" departSpeed="0.00" departDelay="0.00" arrival="118.00" arrivalLane="2o_0" arrivalPos="492.80" arrivalSpeed="9.67" duration="95.00" routeLength="990.53" waitingTime="0.00" waitingCount="0" stopTime="0.00" timeLoss="19.26" rerouteNo="0" devices="tripinfo_SN_23" vType="car" speedFactor="0.94" vaporized=""/>
    <tripinfo id="EW_24" depart="24.00" departLane="4i_0" departPos="4.10" departSpeed="0.00" departDelay="0.00" arrival="121.00" arrivalLane="3o_0" arrivalPos="492.80" arrivalSpeed="8.87" duration="97.00" routeLength="995.90" waitingTime="0.00" waitingCount="0" stopTime="0.00" timeLoss="14.04" rerouteNo="0" devices="tripinfo_EW_24" vType="car" speedFactor="0.86" vaporized=""/>
    <tripinfo id="WE_30" depart="30.00" departLane="1i_0" departPos="10.10" departSpeed="0.00" departDelay="0.00" arrival="123.00" arrivalLane="3o_0" arrivalPos="492.80" arrivalSpeed="10.91" duration="93.00" routeLength="984.53" waitingTime="0.00" waitingCount="0" stopTime="0.00" timeLoss="24.17" rerouteNo="0" devices="tripinfo_WE_30" vType="truck" speedFactor="1.02" vaporized=""/>
    <tripinfo id="WE_37" depart="37.00" departLane="1i_0" departPos="4.10" departSpeed="0.00" departDelay="0.00" arrival="126.00" arrivalLane="3o_0" arrivalPos="492.80" arrivalSpeed="10.16" duration="89.00" routeLength="990.53" waitingTime="0.00" waitingCount="0" stopTime="0.00" timeLoss="12.26" rerouteNo="0" devices="tripinfo_WE_37" vType="car" speedFactor="0.93" vaporized=""/>
    <tripinfo id="NS_41" depart="41.00" departLane="2i_0" departPos="4.10" departSpeed="0.00" departDelay="0.00" arrival="128.00" arrivalLane="3o_0" arrivalPos="492.80" arrivalSpeed="9.40" duration="87.00" routeLength="995.70" waitingTime="0.00" waitingCount="0" stopTime="0.00" timeLoss="10.95" rerouteNo="0" devices="tripinfo_NS_41" vType="car" speedFactor="0.94" vaporized=""/>
    <tripinfo id="WE_39" depart="40.00" departLane="1i_0" departPos="4.10" departSpeed="0.00" departDelay="1.00" arrival="129.00" arrivalLane="2o_0" arrivalPos="492.80" arrivalSpeed="8.48" duration="89.00" routeLength="995.90" waitingTime="0.00" waitingCount="0" stopTime="0.00" timeLoss="8.51" rerouteNo="0" devices="tripinfo_WE_39" vType="car" speedFactor="0.88" vaporized=""/>
    <tripinfo id="NS_51" depart="51.00" departLane="2i_0" departPos="4.10" departSpeed="0.00" departDelay="0.00" arrival="129.00" arrivalLane="4o_0" arrivalPos="492.80" arrivalSpeed="10.53" duration="78.00" routeLength="990.53" waitingTime="0.00" waitingCount="0" stopTime="0.00" timeLoss="8.25" rerouteNo="0" devices="tripinfo_NS_51" vType="car" speedFactor="1.02" vaporized=""/>
    <tripinfo id="SN_31" depart="31.00" departLane="3i_0" departPos="4.10" departSpeed="0.00" departDelay="0.00" arrival="130.00" arrivalLane="4o_0" arrivalPos="492.80" arrivalSpeed="12.15" duration="99.00" routeLength="995.90" waitingTime="14.00" waitingCount="2" stopTime="0.00" timeLoss="36.00" rerouteNo="0" devices="tripinfo_SN_31" vType="car" speedFactor="1.12" vaporized=""/>
    <tripinfo id="SN_28" depart="28.00" departLane="3i_0" departPos="4.10" departSpeed="0.00" departDelay="0.00" arrival="131.00" arrivalLane="2o_0" arrivalPos="492.80" arrivalSpeed="11.24" duration="103.00" routeLength="990.53" waitingTime="14.00" waitingCount="1" stopTime="0.00" timeLoss="34.07" rerouteNo="0" devices="tripinfo_SN_28" vType="car" speedFactor="1.03" vaporized=""/>
    <tripinfo id="EW_40" depart="40.00" departLane="4i_0" departPos="4.10" departSpeed="0.00" departDelay="0.00" arrival="132.00" arrivalLane="3o_0" arrivalPos="492.80" arrivalSpeed="9.51" duration="92.00" routeLength="995.90" waitingTime="3.00" waitingCount="1" stopTime="0.00" timeLoss="16.41" rerouteNo="0" devices="tripinfo_EW_40" vType="car" speedFactor="0.94" vaporized=""/>
    <tripinfo id="EW_46" depart="46.00" departLane="4i_0" departPos="4.10" departSpeed="0.00" departDelay="0.00" arrival="133.00" arrivalLane="3o_0" arrivalPos="492.80" arrivalSpeed="12.02" duration="87.00" routeLength="995.90" waitingTime="2.00" waitingCount="2" stopTime="0.00" timeLoss="26.05" rerouteNo="0" devices="tripinfo_EW_46" vType="car" speedFactor="1.16" vaporized=""/>
    <tripinfo id="NS_59" depart="59.00" departLane="2i_0" departPos="4.10" departSpeed="0.00" departDelay="0.00" arrival="137.00" arrivalLane="1o_0" arrivalPos="492.80" arrivalSpeed="10.52" duration="78.00" routeLength="995.90" waitingTime="0.00" waitingCount="0" stopTime="0.00" timeLoss="7.79" rerouteNo="0" devices="tripinfo_NS_59" vType="car" speedFactor="1.01" vaporized=""/>
    <tripinfo id="EW_60" depart="60.00" departLane="4i_0" departPos="4.10" departSpeed="0.00" departDelay="0.00" arrival="148.00" arrivalLane="3o_0" arrivalPos="492.80" arrivalSpeed="10.23" duration="88.00" routeLength="995.90" waitingTime="2.00" waitingCount="1" stopTime="0.00" timeLoss="14.84" rerouteNo="0" devices="tripinfo_EW_60" vType="car" speedFactor="0.97" vaporized=""/>
    <tripinfo id="EW_72" depart="72.00" departLane="4i_0" departPos="4.10" departSpeed="0.00" departDelay="0.00" arrival="149.00" arrivalLane="3o_0" arrivalPos="492.80" arrivalSpeed="11.47" duration="77.00" routeLength="995.90" waitingTime="0.00" waitingCount="0" stopTime="0.00" timeLoss="14.42" rerouteNo="0" devices="tripinfo_EW_72" vType="car" speedFactor="1.13" vaporized=""/>
    <tripinfo id="SN_61" depart="61.00" departLane="3i_0" departPos="4.10" departSpeed="0.00" departDelay="0.00" arrival="151.00" arrivalLane="2o_0" arrivalPos="492.80" arrivalSpeed="9.81" duration="90.00" routeLength="990.53" waitingTime="0.00" waitingCount="0" stopTime="0.00" timeLoss="10.47" rerouteNo="0" devices="tripinfo_SN_61" vType="car" speedFactor="0.89" vaporized=""/>
    <tripinfo id="SN_67" depart="67.00" departLane="3i_0" departPos="4.10" departSpeed="0.00" departDelay="0.00" arrival="158.00" arrivalLane="1o_0" arrivalPos="492.80" arrivalSpeed="9.74" duration="91.00" routeLength="995.70" waitingTime="0.00" waitingCount="0" stopTime="0.00" timeLoss="13.70" rerouteNo="0" devices="tripinfo_SN_67" vType="car" speedFactor="0.92" vaporized=""/>
    <tripinfo id="SN_73" depart="73.00" departLane="3i_0" departPos="4.10" departSpeed="0.00" departDelay="0.00" arrival="158.00" arrivalLane="4o_0" arrivalPos="492.80" arrivalSpeed="9.99" duration="85.00" routeLength="995.90" waitingTime="0.00" waitingCount="0" stopTime="0.00" timeLoss="9.08" rerouteNo="0" devices="tripinfo_SN_73" vType="car" speedFactor="0.93" vaporized=""/>
    <tripinfo id="EW_74" depart="75.00" departLane="4i_0" departPos="4.10" departSpeed="0.00" departDelay="1.00" arrival="160.00" arrivalLane="1o_0" arrivalPos="492.80" arrivalSpeed="12.45" duration="85.00" routeLength="990.53" waitingTime="3.00" waitingCount="1" stopTime="0.00" timeLoss="24.48" rerouteNo="0" devices="tripinfo_EW_74" vType="car" speedFactor="1.18" vaporized=""/>
    <tripinfo id="WE_65" depart="65.00" departLane="1i_0" departPos="4.10" departSpeed="0.00" departDelay="0.00" arrival="164.00" arrivalLane="3o_0" arrivalPos="492.80" arrivalSpeed="7.96" duration="99.00" routeLength="990.53" waitingTime="1.00" waitingCount="1" stopTime="0.00" timeLoss="13.38" rerouteNo="0" devices="tripinfo_WE_65" vType="car" speedFactor="0.83" vaporized=""/>
    <tripinfo id="WE_67" depart="67.00" departLane="1i_0" departPos="4.10" departSpeed="0.00" departDelay="0.00" arrival="166.00" arrivalLane="4o_0" arrivalPos="492.80" arrivalSpeed="8.70" duration="99.00" routeLength="995.70" waitingTime="1.00" waitingCount="1" stopTime="0.00" timeLoss="17.59" rerouteNo="0" devices="tripinfo_WE_67" vType="car" speedFactor="0.87" vaporized=""/>
    <tripinfo id="WE_69" depart="70.00" departLane="1i_0" departPos="4.10" departSpeed="0.00" departDelay="1.00" arrival="166.00" arrivalLane="3o_0" arrivalPos="492.80" arrivalSpeed="9.37" duration="96.00" routeLength="990.53" waitingTime="1.00" waitingCount="1" stopTime="0.00" timeLoss="21.10" rerouteNo="0" devices="tripinfo_WE_69" vType="car" speedFactor="0.95" vaporized=""/>
    <tripinfo id="WE_76" depart="76.00" departLane="1i_0" departPos="4.10" departSpeed="0.00" departDelay="0.00" arrival="167.00" arrivalLane="4o_0" arrivalPos="492.80" arrivalSpeed="11.11" duration="91.00" routeLength="995.70" waitingTime="0.00" waitingCount="0" stopTime="0.00" timeLoss="29.85" rerouteNo="0" devices="tripinfo_WE_76" vType="car" speedFactor="1.15" vaporized=""/>
    <tripinfo id="WE_89" depart="89.00" departLane="1i_0" departPos="4.10" departSpeed="0.00" departDelay="0.00" arrival="167.00" arrivalLane="3o_0" arrivalPos="492.80" arrivalSpeed="10.97" duration="78.00" routeLength="990.53" waitingTime="0.00" waitingCount="0" stopTime="0.00" timeLoss="8.88" rerouteNo="0" devices="tripinfo_WE_89" vType="car" speedFactor="1.02" vaporized=""/>
    <tripinfo id="WE_80" depart="80.00" departLane="1i_0" departPos="4.10" departSpeed="0.00" departDelay="0.00" arrival="169.00" arrivalLane="4o_0" arrivalPos="492.80" arrivalSpeed="12.30" duration="89.00" routeLength="995.70" waitingTime="0.00" waitingCount="0" stopTime="0.00" timeLoss="28.36" rerouteNo="0" devices="tripinfo_WE_80" vType="car" speedFactor="1.17" vaporized=""/>
    <tripinfo id="NS_90" depart="92.00" departLane="2i_0" departPos="4.10" departSpeed="0.00" departDelay="2.00" arrival="171.00" arrivalLane="4o_0" arrivalPos="492.80" arrivalSpeed="12.87" duration="79.00" routeLength="990.53" waitingTime="0.00" waitingCount="0" stopTime="0.00" timeLoss="18.70" rerouteNo="0" devices="tripinfo_NS_90" vType="car" speedFactor="1.18" vaporized=""/>
    <tripinfo id="NS_89" depart="89.00" departLane="2i_0" departPos="4.10" departSpeed="0.00" departDelay="0.00" arrival="172.00" arrivalLane="3o_0" arrivalPos="492.80" arrivalSpeed="10.43" duration="83.00" routeLength="995.70" waitingTime="0.00" waitingCount="0" stopTime="0.00" timeLoss="9.56" rerouteNo="0" devices="tripinfo_NS_89" vType="car" speedFactor="0.97" vaporized=""/>
    <tripinfo id="NS_104" depart="104.00" departLane="2i_0" departPos="4.10" departSpeed="0.00" departDelay="0.00" arrival="186.00" arrivalLane="1o_0" arrivalPos="492.80" arrivalSpeed="10.14" duration="82.00" routeLength="995.90" waitingTime="0.00" waitingCount="0" stopTime="0.00" timeLoss="7.54" rerouteNo="0" devices="tripinfo_NS_104" vType="car" speedFactor="0.96" vaporized=""/>
    <tripinfo id="EW_97" depart="97.00" departLane="4i_0" departPos="4.10" departSpeed="0.00" departDelay="0.00" arrival="187.00" arrivalLane="1o_0" arrivalPos="492.80" arrivalSpeed="12.01" duration="90.00" routeLength="990.53" waitingTime="8.00" waitingCount="1" stopTime="0.00" timeLoss="26.16" rerouteNo="0" devices="tripinfo_EW_97" vType="car" speedFactor="1.10" vaporized=""/>
    <tripinfo id="WE_103" depart="103.00" departLane="1i_0" departPos="4.10" departSpeed="0.00" departDelay="0.00" arrival="187.00" arrivalLane="4o_0" arrivalPos="492.80" arrivalSpeed="10.66" duration="84.00" routeLength="995.70" waitingTime="1.00" waitingCount="1" stopTime="0.00" timeLoss="14.62" rerouteNo="0" devices="tripinfo_WE_103" vType="car" speedFactor="1.03" vaporized=""/>
    <tripinfo id="WE_114" depart="115.00" departLane="1i_0" departPos="4.10" departSpeed="0.00" departDelay="1.00" arrival="188.00" arrivalLane="3o_0" arrivalPos="492.80" arrivalSpeed="11.74" duration="73.00" routeLength="990.53" waitingTime="0.00" waitingCount="0" stopTime="0.00" timeLoss="8.40" rerouteNo="0" devices="tripinfo_WE_114" vType="car" speedFactor="1.09" vaporized=""/>
    <tripinfo id="NS_107" depart="107.00" departLane="2i_0" departPos="10.10" departSpeed="0.00" departDelay="0.00" arrival="189.00" arrivalLane="4o_0" arrivalPos="492.80" arrivalSpeed="11.55" duration="82.00" routeLength="984.53" waitingTime="0.00" waitingCount="0" stopTime="0.00" timeLoss="14.35" rerouteNo="0" devices="tripinfo_NS_107" vType="truck" speedFactor="1.05" vaporized=""/>
    <tripinfo id="NS_111" depart="111.00" departLane="2i_0" departPos="4.10" departSpeed="0.00" departDelay="0.00" arrival="192.00" arrivalLane="4o_0" arrivalPos="492.80" arrivalSpeed="11.09" duration="81.00" routeLength="990.53" waitingTime="0.00" waitingCount="0" stopTime="0.00" timeLoss="12.85" rerouteNo="0" devices="tripinfo_NS_111" vType="car" speedFactor="1.04" vaporized=""/>
    <tripinfo id="EW_116" depart="116.00" departLane="4i_0" departPos="4.10" departSpeed="0.00" departDelay="0.00" arrival="197.00" arrivalLane="3o_0" arrivalPos="492.80" arrivalSpeed="10.36" duration="81.00" routeLength="995.90" waitingTime="0.00" waitingCount="0" stopTime="0.00" timeLoss="9.49" rerouteNo="0" devices="tripinfo_EW_116" vType="car" speedFactor="1.00" vaporized=""/>
    <tripinfo id="SN_76" depart="76.00" departLane="3i_0" departPos="10.10" departSpeed="0.00" departDelay="0.00" arrival="200.00" arrivalLane="4o_0" arrivalPos="492.80" arrivalSpeed="10.87" duration="124.00" routeLength="989.90" waitingTime="34.00" waitingCount="1" stopTime="0.00" timeLoss="53.31" rerouteNo="0" devices="tripinfo_SN_76" vType="truck" speedFactor="1.00" vaporized=""/>
    <tripinfo id="SN_82" depart="82.00" departLane="3i_0" departPos="10.10" departSpeed="0.00" departDelay="0.00" arrival="202.00" arrivalLane="2o_0" arrivalPos="492.80" arrivalSpeed="11.01" duration="120.00" routeLength="984.53" waitingTime="27.00" waitingCount="1" stopTime="0.00" timeLoss="49.26" rerouteNo="0" devices="tripinfo_SN_82" vType="truck" speedFactor="1.00" vaporized=""/>
    <tripinfo id="NS_119" depart="119.00" departLane="2i_0" departPos="10.10" departSpeed="0.00" departDelay="0.00" arrival="206.00" arrivalLane="4o_0" arrivalPos="492.80" arrivalSpeed="10.09" duration="87.00" routeLength="984.53" waitingTime="0.00" waitingCount="0" stopTime="0.00" timeLoss="12.38" rerouteNo="0" devices="tripinfo_NS_119" vType="truck" speedFactor="0.94" vaporized=""/>
    <tripinfo id="WE_119" depart="119.00" departLane="1i_0" departPos="4.10" departSpeed="0.00" departDelay="0.00" arrival="211.00" arrivalLane="2o_0" arrivalPos="492.80" arrivalSpeed="8.75" duration="92.00" routeLength="995.90" waitingTime="0.00" waitingCount="0" stopTime="0.00" timeLoss="13.63" rerouteNo="0" devices="tripinfo_WE_119" vType="car" speedFactor="0.90" vaporized=""/>
    <tripinfo id="WE_124" depart="124.00" departLane="1i_0" departPos="4.10" departSpeed="0.00" departDelay="0.00" arrival="213.00" arrivalLane="2o_0" arrivalPos="492.80" arrivalSpeed="12.90" duration="89.00" routeLength="995.90" waitingTime="0.00" waitingCount="0" stopTime="0.00" timeLoss="28.10" rerouteNo="0" devices="tripinfo_WE_124" vType="car" speedFactor="1.17" vaporized=""/>
    <tripinfo id="WE_128" depart="128.00" departLane="1i_0" departPos="4.10" departSpeed="0.00" departDelay="0.00" arrival="215.00" arrivalLane="2o_0" arrivalPos="492.80" arrivalSpeed="11.20" duration="87.00" routeLength="995.90" waitingTime="0.00" waitingCount="0" stopTime="0.00" timeLoss="21.84" rerouteNo="0" devices="tripinfo_WE_128" vType="car" speedFactor="1.10" vaporized=""/>
    <tripinfo id="SN_111" depart="111.00" departLane="3i_0" departPos="4.10" departSpeed="0.00" departDelay="0.00" arrival="216.00" arrivalLane="4o_0" arrivalPos="492.80" arrivalSpeed="10.31" duration="105.00" routeLength="995.90" waitingTime="9.00" waitingCount="2" stopTime="0.00" timeLoss="36.87" rerouteNo="0" devices="tripinfo_SN_111" vType="car" speedFactor="1.04" vaporized=""/>
    <tripinfo id="EW_122" depart="122.00" departLane="4i_0" departPos="4.10" departSpeed="0.00" departDelay="0.00" arrival="219.00" arrivalLane="1o_0" arrivalPos="492.80" arrivalSpeed="8.93" duration="97.00" routeLength="990.53" waitingTime="1.00" waitingCount="1" stopTime="0.00" timeLoss="14.76" rerouteNo="0" devices="tripinfo_EW_122" vType="car" speedFactor="0.85" vaporized=""/>
    <tripinfo id="SN_101" depart="101.00" departLane="3i_0" departPos="4.10" departSpeed="0.00" departDelay="0.00" arrival="221.00" arrivalLane="1o_0" arrivalPos="492.80" arrivalSpeed="9.98" duration="120.00" routeLength="995.70" waitingTime="18.00" waitingCount="3" stopTime="0.00" timeLoss="41.22" rerouteNo="0" devices="tripinfo_SN_101" vType="car" speedFactor="0.90" vaporized=""/>
    <tripinfo id="EW_127" depart="130.00" departLane="4i_0" departPos="4.10" departSpeed="0.00" departDelay="3.00" arrival="221.00" arrivalLane="2o_0" arrivalPos="492.80" arrivalSpeed="10.12" duration="91.00" routeLength="995.70" waitingTime="2.00" waitingCount="1" stopTime="0.00" timeLoss="21.39" rerouteNo="0" devices="tripinfo_EW_127" vType="car" speedFactor="1.02" vaporized=""/>
    <tripinfo id="EW_136" depart="136.00" departLane="4i_0" departPos="4.10" departSpeed="0.00" departDelay="0.00" arrival="224.00" arrivalLane="3o_0" arrivalPos="492.80" arrivalSpeed="10.08" duration="88.00" routeLength="995.90" waitingTime="0.00" waitingCount="0" stopTime="0.00" timeLoss="17.04" rerouteNo="0" devices="tripinfo_EW_136" vType="car" speedFactor="1.00" vaporized=""/>
    <tripinfo id="NS_150" depart="151.00" departLane="2i_0" departPos="4.10" departSpeed="0.00" departDelay="1.00" arrival="227.00" arrivalLane="4o_0" arrivalPos="492.80" arrivalSpeed="11.88" duration="76.00" routeLength="990.53" waitingTime="0.00" waitingCount="0" stopTime="0.00" timeLoss="12.35" rerouteNo="0" devices="tripinfo_NS_150" vType="car" speedFactor="1.12" vaporized=""/>
    <tripinfo id="NS_141" depart="141.00" departLane="2i_0" departPos="4.10" departSpeed="0.00" departDelay="0.00" arrival="231.00" arrivalLane="3o_0" arrivalPos="492.80" arrivalSpeed="9.44" duration="90.00" routeLength="995.70" waitingTime="0.00" waitingCount="0" stopTime="0.00" timeLoss="10.97" rerouteNo="0" devices="tripinfo_NS_141" vType="car" speedFactor="0.90" vaporized=""/>
    <tripinfo id="SN_144" depart="144.00" departLane="3i_0" departPos="4.10" departSpeed="0.00" departDelay="0.00" arrival="231.00" arrivalLane="4o_0" arrivalPos="492.80" arrivalSpeed="12.01" duration="87.00" routeLength="995.90" waitingTime="3.00" waitingCount="2" stopTime="0.00" timeLoss="24.66" rerouteNo="0" devices="tripinfo_SN_144" vType="car" speedFactor="1.14" vaporized=""/>
    <tripinfo id="WE_146" depart="146.00" departLane="1i_0" departPos="4.10" departSpeed="0.00" departDelay="0.00" arrival="233.00" arrivalLane="3o_0" arrivalPos="492.80" arrivalSpeed="9.57" duration="87.00" routeLength="990.53" waitingTime="0.00" waitingCount="0" stopTime="0.00" timeLoss="13.79" rerouteNo="0" devices="tripinfo_WE_146" vType="car" speedFactor="0.97" vaporized=""/>
    <tripinfo id="SN_119" depart="119.00" departLane="3i_0" departPos="4.10" departSpeed="0.00" departDelay="0.00" arrival="235.00" arrivalLane="2o_0" arrivalPos="492.80" arrivalSpeed="8.85" duration="116.00" routeLength="990.53" waitingTime="5.00" waitingCount="3" stopTime="0.00" timeLoss="33.37" rerouteNo="0" devices="tripinfo_SN_119" vType="car" speedFactor="0.85" vaporized=""/>
    <tripinfo id="NS_145" depart="145.00" departLane="2i_0" departPos="4.10" departSpeed="0.00" departDelay="0.00" arrival="235.00" arrivalLane="3o_0" arrivalPos="492.80" arrivalSpeed="11.30" duration="90.00" routeLength="995.70" waitingTime="0.00" waitingCount="0" stopTime="0.00" timeLoss="20.11" rerouteNo="0" devices="tripinfo_NS_145" vType="car" speedFactor="1.02" vaporized=""/>
    <tripinfo id="SN_148" depart="149.00" departLane="3i_0" departPos="4.10" departSpeed="0.00" departDelay="1.00" arrival="235.00" arrivalLane="1o_0" arrivalPos="492.80" arrivalSpeed="11.49" duration="86.00" routeLength="995.70" waitingTime="1.00" waitingCount="1" stopTime="0.00" timeLoss="20.17" rerouteNo="0" devices="tripinfo_SN_148" vType="car" speedFactor="1.08" vaporized=""/>
    <tripinfo id="SN_139" depart="139.00" departLane="3i_0" departPos="4.10" departSpeed="0.00" departDelay="0.00" arrival="237.00" arrivalLane="2o_0" arrivalPos="492.80" arrivalSpeed="10.14" duration="98.00" routeLength="990.53" waitingTime="3.00" waitingCount="1" stopTime="0.00" timeLoss="27.06" rerouteNo="0" devices="tripinfo_SN_139" vType="car" speedFactor="1.00" vaporized=""/>
    <tripinfo id="NS_155" depart="155.00" departLane="2i_0" departPos="4.10" departSpeed="0.00" departDelay="0.00" arrival="249.00" arrivalLane="3o_0" arrivalPos="492.80" arrivalSpeed="10.15" duration="94.00" routeLength="995.70" waitingTime="3.00" waitingCount="1" stopTime="0.00" timeLoss="18.52" rerouteNo="0" devices="tripinfo_NS_155" vType="car" speedFactor="0.94" vaporized=""/>
    <tripinfo id="EW_162" depart="162.00" departLane="4i_0" departPos="4.10" departSpeed="0.00" departDelay="0.00" arrival="253.00" arrivalLane="3o_0" arrivalPos="492.80" arrivalSpeed="10.87" duration="91.00" routeLength="995.90" waitingTime="7.00" waitingCount="1" stopTime="0.00" timeLoss="22.77" rerouteNo="0" devices="tripinfo_EW_162" vType="car" speedFactor="1.04" vaporized=""/>
    <tripinfo id="NS_156" depart="158.00" departLane="2i_0" departPos="4.10" departSpeed="0.00" departDelay="2.00" arrival="254.00" arrivalLane="1o_0" arrivalPos="492.80" arrivalSpeed="8.85" duration="96.00" routeLength="995.90" waitingTime="0.00" waitingCount="0" stopTime="0.00" timeLoss="15.83" rerouteNo="0" devices="tripinfo_NS_156" vType="car" speedFactor="0.88" vaporized=""/>
    <tripinfo id="NS_168" depart="168.00" departLane="2i_0" departPos="4.10" departSpeed="0.00" departDelay="0.00" arrival="254.00" arrivalLane="4o_0" arrivalPos="492.80" arrivalSpeed="10.40" duration="86.00" routeLength="990.53" waitingTime="0.00" waitingCount="0" stopTime="0.00" timeLoss="13.01" rerouteNo="0" devices="tripinfo_NS_168" vType="car" speedFactor="0.97" vaporized=""/>
    <tripinfo id="NS_160" depart="162.00" departLane="2i_0" departPos="10.10" departSpeed="0.00" departDelay="2.00" arrival="257.00" arrivalLane="1o_0" arrivalPos="492.80" arrivalSpeed="10.59" duration="95.00" routeLength="989.90" waitingTime="0.00" waitingCount="0" stopTime="0.00" timeLoss="20.70" rerouteNo="0" devices="tripinfo_NS_160" vType="truck" speedFactor="0.96" vaporized=""/>
    <tripinfo id="WE_154" depart="154.00" departLane="1i_0" departPos="4.10" departSpeed="0.00" departDelay="0.00" arrival="258.00" arrivalLane="4o_0" arrivalPos="492.80" arrivalSpeed="10.00" duration="104.00" routeLength="995.70" waitingTime="19.00" waitingCount="2" stopTime="0.00" timeLoss="34.10" rerouteNo="0" devices="tripinfo_WE_154" vType="car" speedFactor="1.02" vaporized=""/>
    <tripinfo id="SN_154" depart="154.00" departLane="3i_0" departPos="4.10" departSpeed="0.00" departDelay="0.00" arrival="261.00" arrivalLane="4o_0" arrivalPos="492.80" arrivalSpeed="9.94" duration="107.00" routeLength="995.90" waitingTime="14.00" waitingCount="2" stopTime="0.00" timeLoss="35.12" rerouteNo="0" devices="tripinfo_SN_154" vType="car" speedFactor="0.99" vaporized=""/>
    <tripinfo id="EW_186" depart="189.00" departLane="4i_0" departPos="4.10" departSpeed="0.00" departDelay="3.00" arrival="265.00" arrivalLane="1o_0" arrivalPos="492.80" arrivalSpeed="11.18" duration="76.00" routeLength="990.53" waitingTime="0.00" waitingCount="0" stopTime="0.00" timeLoss="8.93" rerouteNo="0" devices="tripinfo_EW_186" vType="car" speedFactor="1.06" vaporized=""/>
    <tripinfo id="WE_158" depart="160.00" departLane="1i_0" departPos="4.10" departSpeed="0.00" departDelay="2.00" arrival="267.00" arrivalLane="2o_0" arrivalPos="492.80" arrivalSpeed="9.34" duration="107.00" routeLength="995.90" waitingTime="13.00" waitingCount="1" stopTime="0.00" timeLoss="29.20" rerouteNo="0" devices="tripinfo_WE_158" vType="car" speedFactor="0.91" vaporized=""/>
    <tripinfo id="WE_163" depart="163.00" departLane="1i_0" departPos="4.10" departSpeed="0.00" departDelay="0.00" arrival="269.00" arrivalLane="2o_0" arrivalPos="492.80" arrivalSpeed="11.23" duration="106.00" routeLength="995.90" waitingTime="12.00" waitingCount="1" stopTime="0.00" timeLoss="36.65" rerouteNo="0" devices="tripinfo_WE_163" vType="car" speedFactor="1.02" vaporized=""/>
    <tripinfo id="WE_167" depart="167.00" departLane="1i_0" departPos="4.10" departSpeed="0.00" departDelay="0.00" arrival="272.00" arrivalLane="4o_0" arrivalPos="492.80" arrivalSpeed="11.02" duration="105.00" routeLength="995.70" waitingTime="10.00" waitingCount="1" stopTime="0.00" timeLoss="35.68" rerouteNo="0" devices="tripinfo_WE_167" vType="car" speedFactor="1.02" vaporized=""/>
    <tripinfo id="NS_182" depart="182.00" departLane="2i_0" departPos="4.10" departSpeed="0.00" departDelay="0.00" arrival="276.00" arrivalLane="3o_0" arrivalPos="492.80" arrivalSpeed="9.68" duration="94.00" routeLength="995.70" waitingTime="5.00" waitingCount="2" stopTime="0.00" timeLoss="18.31" rerouteNo="0" devices="tripinfo_NS_182" vType="car" speedFactor="0.94" vaporized=""/>
    <tripinfo id="EW_193" depart="193.00" departLane="4i_0" departPos="4.10" departSpeed="0.00" departDelay="0.00" arrival="277.00" arrivalLane="3o_0" arrivalPos="492.80" arrivalSpeed="11.28" duration="84.00" routeLength="995.90" waitingTime="0.00" waitingCount="0" stopTime="0.00" timeLoss="15.60" rerouteNo="0" devices="tripinfo_EW_193" vType="car" speedFactor="1.03" vaporized=""/>
    <tripinfo id="WE_187" depart="187.00" departLane="1i_0" departPos="4.10" departSpeed="0.00" departDelay="0.00" arrival="282.00" arrivalLane="4o_0" arrivalPos="492.80" arrivalSpeed="9.98" duration="95.00" routeLength="995.70" waitingTime="0.00" waitingCount="0" stopTime="0.00" timeLoss="20.75" rerouteNo="0" devices="tripinfo_WE_187" vType="car" speedFactor="0.96" vaporized=""/>