<?xml version="1.0" encoding="UTF-8"?>

<!-- generated on 2024-05-05 17:47:17 by Eclipse SUMO sumo Version 1.19.0
<configuration xmlns:xsi="http://www.w3.org/2001/XMLSchema-instance" xsi:noNamespaceSchemaLocation="http://sumo.dlr.de/xsd/sumoConfiguration.xsd">

    <input>
        <net-file value="twoone.net.xml"/>
        <route-files value="route_gen.rou.xml"/>
    </input>

    <output>
        <tripinfo-output value="tripinfo_epi361.xml"/>
    </output>

    <report>
        <no-warnings value="true"/>
    </report>

    <traci_server>
        <remote-port value="38069"/>
    </traci_server>

</configuration>
-->

<tripinfos xmlns:xsi="http://www.w3.org/2001/XMLSchema-instance" xsi:noNamespaceSchemaLocation="http://sumo.dlr.de/xsd/tripinfo_file.xsd">
    <tripinfo id="WE_2" depart="2.00" departLane="1i_0" departPos="4.10" departSpeed="0.00" departDelay="0.00" arrival="80.00" arrivalLane="3o_0" arrivalPos="492.80" arrivalSpeed="11.15" duration="78.00" routeLength="990.53" waitingTime="1.00" waitingCount="1" stopTime="0.00" timeLoss="10.93" rerouteNo="0" devices="tripinfo_WE_2" vType="car" speedFactor="1.06" vaporized=""/>
    <tripinfo id="WE_6" depart="6.00" departLane="1i_0" departPos="4.10" departSpeed="0.00" departDelay="0.00" arrival="82.00" arrivalLane="4o_0" arrivalPos="492.80" arrivalSpeed="11.03" duration="76.00" routeLength="995.70" waitingTime="0.00" waitingCount="0" stopTime="0.00" timeLoss="10.04" rerouteNo="0" devices="tripinfo_WE_6" vType="car" speedFactor="1.08" vaporized=""/>
    <tripinfo id="EW_3" depart="3.00" departLane="4i_0" departPos="10.10" departSpeed="0.00" departDelay="0.00" arrival="90.00" arrivalLane="3o_0" arrivalPos="492.80" arrivalSpeed="10.62" duration="87.00" routeLength="989.90" waitingTime="0.00" waitingCount="0" stopTime="0.00" timeLoss="13.53" rerouteNo="0" devices="tripinfo_EW_3" vType="truck" speedFactor="0.97" vaporized=""/>
    <tripinfo id="SN_3" depart="3.00" departLane="3i_0" departPos="10.10" departSpeed="0.00" departDelay="0.00" arrival="92.00" arrivalLane="4o_0" arrivalPos="492.80" arrivalSpeed="11.09" duration="89.00" routeLength="989.90" waitingTime="1.00" waitingCount="1" stopTime="0.00" timeLoss="18.89" rerouteNo="0" devices="tripinfo_SN_3" vType="truck" speedFactor="1.01" vaporized=""/>
    <tripinfo id="EW_8" depart="8.00" departLane="4i_0" departPos="4.10" departSpeed="0.00" departDelay="0.00" arrival="94.00" arrivalLane="2o_0" arrivalPos="492.80" arrivalSpeed="11.10" duration="86.00" routeLength="995.70" waitingTime="2.00" waitingCount="1" stopTime="0.00" timeLoss="17.32" rerouteNo="0" devices="tripinfo_EW_8" vType="car" speedFactor="1.03" vaporized=""/>
    <tripinfo id="NS_15" depart="15.00" departLane="2i_0" departPos="4.10" departSpeed="0.00" departDelay="0.00" arrival="96.00" arrivalLane="3o_0" arrivalPos="492.80" arrivalSpeed="11.33" duration="81.00" routeLength="995.70" waitingTime="1.00" waitingCount="1" stopTime="0.00" timeLoss="13.45" rerouteNo="0" devices="tripinfo_NS_15" vType="car" speedFactor="1.05" vaporized=""/>
    <tripinfo id="EW_23" depart="23.00" departLane="4i_0" departPos="4.10" departSpeed="0.00" departDelay="0.00" arrival="112.00" arrivalLane="3o_0" arrivalPos="492.80" arrivalSpeed="8.84" duration="89.00" routeLength="995.90" waitingTime="0.00" waitingCount="0" stopTime="0.00" timeLoss="8.92" rerouteNo="0" devices="tripinfo_EW_23" vType="car" speedFactor="0.89" vaporized=""/>
    <tripinfo id="EW_15" depart="15.00" departLane="4i_0" departPos="4.10" departSpeed="0.00" departDelay="0.00" arrival="113.00" arrivalLane="2o_0" arrivalPos="492.80" arrivalSpeed="9.20" duration="98.00" routeLength="995.70" waitingTime="1.00" waitingCount="1" stopTime="0.00" timeLoss="12.80" rerouteNo="0" devices="tripinfo_EW_15" vType="car" speedFactor="0.83" vaporized=""/>
    <tripinfo id="NS_34" depart="34.00" departLane="2i_0" departPos="4.10" departSpeed="0.00" departDelay="0.00" arrival="114.00" arrivalLane="3o_0" arrivalPos="492.80" arrivalSpeed="11.20" duration="80.00" routeLength="995.70" waitingTime="0.00" waitingCount="0" stopTime="0.00" timeLoss="14.80" rerouteNo="0" devices="tripinfo_NS_34" vType="car" speedFactor="1.09" vaporized=""/>
    <tripinfo id="WE_25" depart="25.00" departLane="1i_0" departPos="4.10" departSpeed="0.00" departDelay="0.00" arrival="115.00" arrivalLane="2o_0" arrivalPos="492.80" arrivalSpeed="9.69" duration="90.00" routeLength="995.90" waitingTime="0.00" waitingCount="0" stopTime="0.00" timeLoss="14.27" rerouteNo="0" devices="tripinfo_WE_25" vType="car" speedFactor="0.94" vaporized=""/>
    <tripinfo id="WE_35" depart="35.00" departLane="1i_0" departPos="4.10" departSpeed="0.00" departDelay="0.00" arrival="117.00" arrivalLane="2o_0" arrivalPos="492.80" arrivalSpeed="11.10" duration="82.00" routeLength="995.90" waitingTime="0.00" waitingCount="0" stopTime="0.00" timeLoss="12.27" rerouteNo="0" devices="tripinfo_WE_35" vType="car" speedFactor="1.03" vaporized=""/>
    <tripinfo id="WE_42" depart="42.00" departLane="1i_0" departPos="4.10" departSpeed="0.00" departDelay="0.00" arrival="122.00" arrivalLane="3o_0" arrivalPos="492.80" arrivalSpeed="10.72" duration="80.00" routeLength="990.53" waitingTime="0.00" waitingCount="0" stopTime="0.00" timeLoss="8.18" rerouteNo="0" devices="tripinfo_WE_42" vType="car" speedFactor="0.99" vaporized=""/>
    <tripinfo id="NS_44" depart="44.00" departLane="2i_0" departPos="4.10" departSpeed="0.00" departDelay="0.00" arrival="128.00" arrivalLane="1o_0" arrivalPos="492.80" arrivalSpeed="9.75" duration="84.00" routeLength="995.90" waitingTime="0.00" waitingCount="0" stopTime="0.00" timeLoss="8.36" rerouteNo="0" devices="tripinfo_NS_44" vType="car" speedFactor="0.94" vaporized=""/>
    <tripinfo id="EW_32" depart="32.00" departLane="4i_0" departPos="4.10" departSpeed="0.00" departDelay="0.00" arrival="130.00" arrivalLane="2o_0" arrivalPos="492.80" arrivalSpeed="8.82" duration="98.00" routeLength="995.70" waitingTime="0.00" waitingCount="0" stopTime="0.00" timeLoss="14.74" rerouteNo="0" devices="tripinfo_EW_32" vType="car" speedFactor="0.86" vaporized=""/>
    <tripinfo id="WE_47" depart="47.00" departLane="1i_0" departPos="4.10" departSpeed="0.00" departDelay="0.00" arrival="131.00" arrivalLane="2o_0" arrivalPos="492.80" arrivalSpeed="11.07" duration="84.00" routeLength="995.90" waitingTime="0.00" waitingCount="0" stopTime="0.00" timeLoss="22.78" rerouteNo="0" devices="tripinfo_WE_47" vType="car" speedFactor="1.16" vaporized=""/>
    <tripinfo id="SN_36" depart="36.00" departLane="3i_0" departPos="10.10" departSpeed="0.00" departDelay="0.00" arrival="135.00" arrivalLane="4o_0" arrivalPos="492.80" arrivalSpeed="11.07" duration="99.00" routeLength="989.90" waitingTime="11.00" waitingCount="1" stopTime="0.00" timeLoss="29.77" rerouteNo="0" devices="tripinfo_SN_36" vType="truck" speedFactor="1.02" vaporized=""/>
    <tripinfo id="SN_41" depart="41.00" departLane="3i_0" departPos="4.10" departSpeed="0.00" departDelay="0.00" arrival="135.00" arrivalLane="1o_0" arrivalPos="492.80" arrivalSpeed="12.07" duration="94.00" routeLength="995.70" waitingTime="9.00" waitingCount="1" stopTime="0.00" timeLoss="30.79" rerouteNo="0" devices="tripinfo_SN_41" vType="car" speedFactor="1.12" vaporized=""/>
    <tripinfo id="EW_52" depart="52.00" departLane="4i_0" departPos="4.10" departSpeed="0.00" departDelay="0.00" arrival="142.00" arrivalLane="1o_0" arrivalPos="492.80" arrivalSpeed="10.70" duration="90.00" routeLength="990.53" waitingTime="4.00" waitingCount="1" stopTime="0.00" timeLoss="20.23" rerouteNo="0" devices="tripinfo_EW_52" vType="car" speedFactor="1.01" vaporized=""/>
    <tripinfo id="EW_44" depart="44.00" departLane="4i_0" departPos="4.10" departSpeed="0.00" departDelay="0.00" arrival="147.00" arrivalLane="2o_0" arrivalPos="492.80" arrivalSpeed="8.81" duration="103.00" routeLength="995.70" waitingTime="8.00" waitingCount="2" stopTime="0.00" timeLoss="22.35" rerouteNo="0" devices="tripinfo_EW_44" vType="car" speedFactor="0.88" vaporized=""/>
    <tripinfo id="SN_42" depart="43.00" departLane="3i_0" departPos="4.10" departSpeed="0.00" departDelay="1.00" arrival="149.00" arrivalLane="2o_0" arrivalPos="492.80" arrivalSpeed="10.13" duration="106.00" routeLength="990.53" waitingTime="7.00" waitingCount="1" stopTime="0.00" timeLoss="29.51" rerouteNo="0" devices="tripinfo_SN_42" vType="car" speedFactor="0.93" vaporized=""/>
    <tripinfo id="WE_57" depart="57.00" departLane="1i_0" departPos="4.10" departSpeed="0.00" departDelay="0.00" arrival="150.00" arrivalLane="4o_0" arrivalPos="492.80" arrivalSpeed="9.16" duration="93.00" routeLength="995.70" waitingTime="2.00" waitingCount="1" stopTime="0.00" timeLoss="13.56" rerouteNo="0" devices="tripinfo_WE_57" vType="car" speedFactor="0.89" vaporized=""/>
    <tripinfo id="SN_45" depart="47.00" departLane="3i_0" departPos="4.10" departSpeed="0.00" departDelay="2.00" arrival="151.00" arrivalLane="2o_0" arrivalPos="492.80" arrivalSpeed="9.61" duration="104.00" routeLength="990.53" waitingTime="3.00" waitingCount="1" stopTime="0.00" timeLoss="28.31" rerouteNo="0" devices="tripinfo_SN_45" vType="car" speedFactor="0.94" vaporized=""/>
    <tripinfo id="EW_54" depart="55.00" departLane="4i_0" departPos="4.10" departSpeed="0.00" departDelay="1.00" arrival="153.00" arrivalLane="2o_0" arrivalPos="492.80" arrivalSpeed="9.85" duration="98.00" routeLength="995.70" waitingTime="3.00" waitingCount="1" stopTime="0.00" timeLoss="24.76" rerouteNo="0" devices="tripinfo_EW_54" vType="car" speedFactor="0.97" vaporized=""/>
    <tripinfo id="NS_62" depart="62.00" departLane="2i_0" departPos="4.10" departSpeed="0.00" departDelay="0.00" arrival="153.00" arrivalLane="4o_0" arrivalPos="492.80" arrivalSpeed="9.33" duration="91.00" routeLength="990.53" waitingTime="0.00" waitingCount="0" stopTime="0.00" timeLoss="10.43" rerouteNo="0" devices="tripinfo_NS_62" vType="car" speedFactor="0.87" vaporized=""/>
    <tripinfo id="SN_51" depart="51.00" departLane="3i_0" departPos="4.10" departSpeed="0.00" departDelay="0.00" arrival="155.00" arrivalLane="4o_0" arrivalPos="492.80" arrivalSpeed="10.43" duration="104.00" routeLength="995.90" waitingTime="2.00" waitingCount="1" stopTime="0.00" timeLoss="34.24" rerouteNo="0" devices="tripinfo_SN_51" vType="car" speedFactor="1.02" vaporized=""/>
    <tripinfo id="EW_68" depart="68.00" departLane="4i_0" departPos="4.10" departSpeed="0.00" departDelay="0.00" arrival="156.00" arrivalLane="2o_0" arrivalPos="492.80" arrivalSpeed="9.64" duration="88.00" routeLength="995.70" waitingTime="0.00" waitingCount="0" stopTime="0.00" timeLoss="13.36" rerouteNo="0" devices="tripinfo_EW_68" vType="car" speedFactor="0.95" vaporized=""/>
    <tripinfo id="NS_64" depart="65.00" departLane="2i_0" departPos="4.10" departSpeed="0.00" departDelay="1.00" arrival="163.00" arrivalLane="3o_0" arrivalPos="492.80" arrivalSpeed="9.64" duration="98.00" routeLength="995.70" waitingTime="6.00" waitingCount="1" stopTime="0.00" timeLoss="20.98" rerouteNo="0" devices="tripinfo_NS_64" vType="car" speedFactor="0.92" vaporized=""/>
    <tripinfo id="EW_70" depart="70.00" departLane="4i_0" departPos="4.10" departSpeed="0.00" departDelay="0.00" arrival="165.00" arrivalLane="3o_0" arrivalPos="492.80" arrivalSpeed="11.57" duration="95.00" routeLength="995.90" waitingTime="3.00" waitingCount="2" stopTime="0.00" timeLoss="32.26" rerouteNo="0" devices="tripinfo_EW_70" vType="car" speedFactor="1.13" vaporized=""/>
    <tripinfo id="NS_78" depart="78.00" departLane="2i_0" departPos="4.10" departSpeed="0.00" departDelay="0.00" arrival="165.00" arrivalLane="4o_0" arrivalPos="492.80" arrivalSpeed="10.57" duration="87.00" routeLength="990.53" waitingTime="0.00" waitingCount="0" stopTime="0.00" timeLoss="16.47" rerouteNo="0" devices="tripinfo_NS_78" vType="car" speedFactor="1.01" vaporized=""/>
    <tripinfo id="WE_58" depart="60.00" departLane="1i_0" departPos="4.10" departSpeed="0.00" departDelay="2.00" arrival="166.00" arrivalLane="2o_0" arrivalPos="492.80" arrivalSpeed="7.95" duration="106.00" routeLength="995.90" waitingTime="7.00" waitingCount="1" stopTime="0.00" timeLoss="20.59" rerouteNo="0" devices="tripinfo_WE_58" vType="car" speedFactor="0.83" vaporized=""/>
    <tripinfo id="NS_79" depart="81.00" departLane="2i_0" departPos="4.10" departSpeed="0.00" departDelay="2.00" arrival="166.00" arrivalLane="4o_0" arrivalPos="492.80" arrivalSpeed="12.74" duration="85.00" routeLength="990.53" waitingTime="0.00" waitingCount="0" stopTime="0.00" timeLoss="24.93" rerouteNo="0" devices="tripinfo_NS_79" vType="car" speedFactor="1.17" vaporized=""/>
    <tripinfo id="NS_73" depart="73.00" departLane="2i_0" departPos="4.10" departSpeed="0.00" departDelay="0.00" arrival="167.00" arrivalLane="1o_0" arrivalPos="492.80" arrivalSpeed="10.22" duration="94.00" routeLength="995.90" waitingTime="1.00" waitingCount="1" stopTime="0.00" timeLoss="17.40" rerouteNo="0" devices="tripinfo_NS_73" vType="car" speedFactor="0.93" vaporized=""/>
    <tripinfo id="EW_75" depart="75.00" departLane="4i_0" departPos="4.10" departSpeed="0.00" departDelay="0.00" arrival="167.00" arrivalLane="3o_0" arrivalPos="492.80" arrivalSpeed="12.50" duration="92.00" routeLength="995.90" waitingTime="3.00" waitingCount="3" stopTime="0.00" timeLoss="30.03" rerouteNo="0" devices="tripinfo_EW_75" vType="car" speedFactor="1.15" vaporized=""/>
    <tripinfo id="WE_75" depart="75.00" departLane="1i_0" departPos="4.10" departSpeed="0.00" departDelay="0.00" arrival="168.00" arrivalLane="3o_0" arrivalPos="492.80" arrivalSpeed="11.94" duration="93.00" routeLength="990.53" waitingTime="13.00" waitingCount="3" stopTime="0.00" timeLoss="33.29" rerouteNo="0" devices="tripinfo_WE_75" vType="car" speedFactor="1.18" vaporized=""/>
    <tripinfo id="SN_88" depart="90.00" departLane="3i_0" departPos="4.10" departSpeed="0.00" departDelay="2.00" arrival="171.00" arrivalLane="4o_0" arrivalPos="492.80" arrivalSpeed="9.91" duration="81.00" routeLength="995.90" waitingTime="0.00" waitingCount="0" stopTime="0.00" timeLoss="9.17" rerouteNo="0" devices="tripinfo_SN_88" vType="car" speedFactor="0.99" vaporized=""/>
    <tripinfo id="NS_99" depart="99.00" departLane="2i_0" departPos="4.10" departSpeed="0.00" departDelay="0.00" arrival="172.00" arrivalLane="3o_0" arrivalPos="492.80" arrivalSpeed="11.98" duration="73.00" routeLength="995.70" waitingTime="0.00" waitingCount="0" stopTime="0.00" timeLoss="13.13" rerouteNo="0" devices="tripinfo_NS_99" vType="car" speedFactor="1.18" vaporized=""/>
    <tripinfo id="WE_97" depart="97.00" departLane="1i_0" departPos="4.10" departSpeed="0.00" departDelay="0.00" arrival="179.00" arrivalLane="2o_0" arrivalPos="492.80" arrivalSpeed="10.56" duration="82.00" routeLength="995.90" waitingTime="0.00" waitingCount="0" stopTime="0.00" timeLoss="8.51" rerouteNo="0" devices="tripinfo_WE_97" vType="car" speedFactor="0.97" vaporized=""/>
    <tripinfo id="SN_90" depart="93.00" departLane="3i_0" departPos="4.10" departSpeed="0.00" departDelay="3.00" arrival="183.00" arrivalLane="2o_0" arrivalPos="492.80" arrivalSpeed="11.23" duration="90.00" routeLength="990.53" waitingTime="8.00" waitingCount="1" stopTime="0.00" timeLoss="20.47" rerouteNo="0" devices="tripinfo_SN_90" vType="car" speedFactor="1.02" vaporized=""/>
    <tripinfo id="WE_105" depart="105.00" departLane="1i_0" departPos="4.10" departSpeed="0.00" departDelay="0.00" arrival="185.00" arrivalLane="2o_0" arrivalPos="492.80" arrivalSpeed="10.48" duration="80.00" routeLength="995.90" waitingTime="0.00" waitingCount="0" stopTime="0.00" timeLoss="10.53" rerouteNo="0" devices="tripinfo_WE_105" vType="car" speedFactor="1.03" vaporized=""/>
    <tripinfo id="NS_102" depart="103.00" departLane="2i_0" departPos="10.10" departSpeed="0.00" departDelay="1.00" arrival="189.00" arrivalLane="1o_0" arrivalPos="492.80" arrivalSpeed="10.05" duration="86.00" routeLength="989.90" waitingTime="0.00" waitingCount="0" stopTime="0.00" timeLoss="12.04" rerouteNo="0" devices="tripinfo_NS_102" vType="truck" speedFactor="0.95" vaporized=""/>
    <tripinfo id="NS_114" depart="115.00" departLane="2i_0" departPos="4.10" departSpeed="0.00" departDelay="1.00" arrival="192.00" arrivalLane="1o_0" arrivalPos="492.80" arrivalSpeed="11.39" duration="77.00" routeLength="995.90" waitingTime="0.00" waitingCount="0" stopTime="0.00" timeLoss="8.47" rerouteNo="0" devices="tripinfo_NS_114" vType="car" speedFactor="1.04" vaporized=""/>
    <tripinfo id="EW_102" depart="102.00" departLane="4i_0" departPos="10.10" departSpeed="0.00" departDelay="0.00" arrival="196.00" arrivalLane="2o_0" arrivalPos="492.80" arrivalSpeed="11.27" duration="94.00" routeLength="989.70" waitingTime="4.00" waitingCount="2" stopTime="0.00" timeLoss="25.89" rerouteNo="0" devices="tripinfo_EW_102" vType="truck" speedFactor="1.05" vaporized=""/>
    <tripinfo id="NS_115" depart="118.00" departLane="2i_0" departPos="4.10" departSpeed="0.00" departDelay="3.00" arrival="199.00" arrivalLane="3o_0" arrivalPos="492.80" arrivalSpeed="12.05" duration="81.00" routeLength="995.70" waitingTime="2.00" waitingCount="1" stopTime="0.00" timeLoss="15.34" rerouteNo="0" devices="tripinfo_NS_115" vType="car" speedFactor="1.09" vaporized=""/>
    <tripinfo id="WE_107" depart="108.00" departLane="1i_0" departPos="10.10" departSpeed="0.00" departDelay="1.00" arrival="206.00" arrivalLane="4o_0" arrivalPos="492.80" arrivalSpeed="10.61" duration="98.00" routeLength="989.70" waitingTime="0.00" waitingCount="0" stopTime="0.00" timeLoss="25.61" rerouteNo="0" devices="tripinfo_WE_107" vType="truck" speedFactor="0.98" vaporized=""/>
    <tripinfo id="EW_114" depart="114.00" departLane="4i_0" departPos="4.10" departSpeed="0.00" departDelay="0.00" arrival="206.00" arrivalLane="3o_0" arrivalPos="492.80" arrivalSpeed="11.47" duration="92.00" routeLength="995.90" waitingTime="3.00" waitingCount="2" stopTime="0.00" timeLoss="23.80" rerouteNo="0" devices="tripinfo_EW_114" vType="car" speedFactor="1.04" vaporized=""/>
    <tripinfo id="EW_133" depart="135.00" departLane="4i_0" departPos="4.10" departSpeed="0.00" departDelay="2.00" arrival="208.00" arrivalLane="3o_0" arrivalPos="492.80" arrivalSpeed="12.63" duration="73.00" routeLength="995.90" waitingTime="0.00" waitingCount="0" stopTime="0.00" timeLoss="11.80" rerouteNo="0" devices="tripinfo_EW_133" vType="car" speedFactor="1.17" vaporized=""/>
    <tripinfo id="NS_117" depart="121.00" departLane="2i_0" departPos="4.10" departSpeed="0.00" departDelay="4.00" arrival="210.00" arrivalLane="4o_0" arrivalPos="492.80" arrivalSpeed="10.96" duration="89.00" routeLength="990.53" waitingTime="2.00" waitingCount="2" stopTime="0.00" timeLoss="18.16" rerouteNo="0" devices="tripinfo_NS_117" vType="car" speedFactor="1.00" vaporized=""/>
    <tripinfo id="WE_109" depart="112.00" departLane="1i_0" departPos="4.10" departSpeed="0.00" departDelay="3.00" arrival="212.00" arrivalLane="4o_0" arrivalPos="492.80" arrivalSpeed="11.54" duration="100.00" routeLength="995.70" waitingTime="1.00" waitingCount="1" stopTime="0.00" timeLoss="34.70" rerouteNo="0" devices="tripinfo_WE_109" vType="car" speedFactor="1.09" vaporized=""/>
    <tripinfo id="WE_122" depart="122.00" departLane="1i_0" departPos="4.10" departSpeed="0.00" departDelay="0.00" arrival="221.00" arrivalLane="3o_0" arrivalPos="492.80" arrivalSpeed="9.85" duration="99.00" routeLength="990.53" waitingTime="1.00" waitingCount="1" stopTime="0.00" timeLoss="20.19" rerouteNo="0" devices="tripinfo_WE_122" vType="car" speedFactor="0.90" vaporized=""/>
    <tripinfo id="EW_135" depart="138.00" departLane="4i_0" departPos="4.10" departSpeed="0.00" departDelay="3.00" arrival="226.00" arrivalLane="2o_0" arrivalPos="492.80" arrivalSpeed="10.06" duration="88.00" routeLength="995.70" waitingTime="4.00" waitingCount="1" stopTime="0.00" timeLoss="18.45" rerouteNo="0" devices="tripinfo_EW_135" vType="car" speedFactor="1.02" vaporized=""/>
    <tripinfo id="NS_128" depart="131.00" departLane="2i_0" departPos="4.10" departSpeed="0.00" departDelay="3.00" arrival="229.00" arrivalLane="3o_0" arrivalPos="492.80" arrivalSpeed="8.41" duration="98.00" routeLength="995.70" waitingTime="1.00" waitingCount="1" stopTime="0.00" timeLoss="14.76" rerouteNo="0" devices="tripinfo_NS_128" vType="car" speedFactor="0.85" vaporized=""/>
    <tripinfo id="WE_126" depart="128.00" departLane="1i_0" departPos="4.10" departSpeed="0.00" departDelay="2.00" arrival="230.00" arrivalLane="4o_0" arrivalPos="492.80" arrivalSpeed="9.68" duration="102.00" routeLength="995.70" waitingTime="2.00" waitingCount="1" stopTime="0.00" timeLoss="20.91" rerouteNo="0" devices="tripinfo_WE_126" vType="car" speedFactor="0.88" vaporized=""/>
    <tripinfo id="EW_149" depart="150.00" departLane="4i_0" departPos="4.10" departSpeed="0.00" departDelay="1.00" arrival="234.00" arrivalLane="1o_0" arrivalPos="492.80" arrivalSpeed="10.07" duration="84.00" routeLength="990.53" waitingTime="0.00" waitingCount="0" stopTime="0.00" timeLoss="14.99" rerouteNo="0" devices="tripinfo_EW_149" vType="car" speedFactor="1.02" vaporized=""/>
    <tripinfo id="EW_156" depart="156.00" departLane="4i_0" departPos="4.10" departSpeed="0.00" departDelay="0.00" arrival="236.00" arrivalLane="1o_0" arrivalPos="492.80" arrivalSpeed="11.99" duration="80.00" routeLength="990.53" waitingTime="0.00" waitingCount="0" stopTime="0.00" timeLoss="14.31" rerouteNo="0" devices="tripinfo_EW_156" vType="car" speedFactor="1.08" vaporized=""/>
    <tripinfo id="WE_131" depart="131.00" departLane="1i_0" departPos="4.10" departSpeed="0.00" departDelay="0.00" arrival="237.00" arrivalLane="2o_0" arrivalPos="492.80" arrivalSpeed="9.41" duration="106.00" routeLength="995.90" waitingTime="3.00" waitingCount="2" stopTime="0.00" timeLoss="23.25" rerouteNo="0" devices="tripinfo_WE_131" vType="car" speedFactor="0.85" vaporized=""/>
    <tripinfo id="WE_140" depart="140.00" departLane="1i_0" departPos="4.10" departSpeed="0.00" departDelay="0.00" arrival="237.00" arrivalLane="4o_0" arrivalPos="492.80" arrivalSpeed="10.90" duration="97.00" routeLength="995.70" waitingTime="1.00" waitingCount="1" stopTime="0.00" timeLoss="26.43" rerouteNo="0" devices="tripinfo_WE_140" vType="car" speedFactor="1.00" vaporized=""/>
    <tripinfo id="EW_144" depart="144.00" departLane="4i_0" departPos="4.10" departSpeed="0.00" departDelay="0.00" arrival="239.00" arrivalLane="2o_0" arrivalPos="492.80" arrivalSpeed="10.54" duration="95.00" routeLength="995.70" waitingTime="2.00" waitingCount="1" stopTime="0.00" timeLoss="23.64" rerouteNo="0" devices="tripinfo_EW_144" vType="car" speedFactor="1.00" vaporized=""/>
    <tripinfo id="WE_137" depart="137.00" departLane="1i_0" departPos="4.10" departSpeed="0.00" departDelay="0.00" arrival="241.00" arrivalLane="2o_0" arrivalPos="492.80" arrivalSpeed="11.11" duration="104.00" routeLength="995.90" waitingTime="3.00" waitingCount="2" stopTime="0.00" timeLoss="38.84" rerouteNo="0" devices="tripinfo_WE_137" vType="car" speedFactor="1.10" vaporized=""/>
    <tripinfo id="NS_159" depart="159.00" departLane="2i_0" departPos="4.10" departSpeed="0.00" departDelay="0.00" arrival="241.00" arrivalLane="4o_0" arrivalPos="492.80" arrivalSpeed="10.81" duration="82.00" routeLength="990.53" waitingTime="2.00" waitingCount="1" stopTime="0.00" timeLoss="12.12" rerouteNo="0" devices="tripinfo_NS_159" vType="car" speedFactor="1.02" vaporized=""/>
    <tripinfo id="WE_146" depart="149.00" departLane="1i_0" departPos="10.10" departSpeed="0.00" departDelay="3.00" arrival="243.00" arrivalLane="2o_0" arrivalPos="492.80" arrivalSpeed="11.83" duration="94.00" routeLength="989.90" waitingTime="0.00" waitingCount="0" stopTime="0.00" timeLoss="26.87" rerouteNo="0" devices="tripinfo_WE_146" vType="truck" speedFactor="1.07" vaporized=""/>
    <tripinfo id="WE_145" depart="145.00" departLane="1i_0" departPos="4.10" departSpeed="0.00" departDelay="0.00" arrival="244.00" arrivalLane="3o_0" arrivalPos="492.80" arrivalSpeed="8.70" duration="99.00" routeLength="990.53" waitingTime="1.00" waitingCount="1" stopTime="0.00" timeLoss="20.29" rerouteNo="0" devices="tripinfo_WE_145" vType="car" speedFactor="0.90" vaporized=""/>
    <tripinfo id="EW_157" depart="158.00" departLane="4i_0" departPos="4.10" departSpeed="0.00" departDelay="1.00" arrival="245.00" arrivalLane="2o_0" arrivalPos="492.80" arrivalSpeed="12.31" duration="87.00" routeLength="995.70" waitingTime="5.00" waitingCount="2" stopTime="0.00" timeLoss="23.88" rerouteNo="0" devices="tripinfo_EW_157" vType="car" speedFactor="1.12" vaporized=""/>
    <tripinfo id="SN_155" depart="155.00" departLane="3i_0" departPos="4.10" departSpeed="0.00" departDelay="0.00" arrival="248.00" arrivalLane="4o_0" arrivalPos="492.80" arrivalSpeed="10.17" duration="93.00" routeLength="995.90" waitingTime="6.00" waitingCount="1" stopTime="0.00" timeLoss="19.73" rerouteNo="0" devices="tripinfo_SN_155" vType="car" speedFactor="0.97" vaporized=""/>
    <tripinfo id="NS_161" depart="161.00" departLane="2i_0" departPos="4.10" departSpeed="0.00" departDelay="0.00" arrival="255.00" arrivalLane="3o_0" arrivalPos="492.80" arrivalSpeed="9.88" duration="94.00" routeLength="995.70" waitingTime="8.00" waitingCount="1" stopTime="0.00" timeLoss="21.94" rerouteNo="0" devices="tripinfo_NS_161" vType="car" speedFactor="0.99" vaporized=""/>
    <tripinfo id="WE_171" depart="171.00" departLane="1i_0" departPos="4.10" departSpeed="0.00" departDelay="0.00" arrival="257.00" arrivalLane="3o_0" arrivalPos="492.80" arrivalSpeed="10.79" duration="86.00" routeLength="990.53" waitingTime="1.00" waitingCount="1" stopTime="0.00" timeLoss="16.42" rerouteNo="0" devices="tripinfo_WE_171" vType="car" speedFactor="1.02" vaporized=""/>
    <tripinfo id="WE_162" depart="162.00" departLane="1i_0" departPos="4.10" departSpeed="0.00" departDelay="0.00" arrival="258.00" arrivalLane="4o_0" arrivalPos="492.80" arrivalSpeed="9.90" duration="96.00" routeLength="995.70" waitingTime="3.00" waitingCount="1" stopTime="0.00" timeLoss="20.14" rerouteNo="0" devices="tripinfo_WE_162" vType="car" speedFactor="0.94" vaporized=""/>
    <tripinfo id="NS_167" depart="167.00" departLane="2i_0" departPos="4.10" departSpeed="0.00" departDelay="0.00" arrival="262.00" arrivalLane="1o_0" arrivalPos="492.80" arrivalSpeed="9.37" duration="95.00" routeLength="995.90" waitingTime="0.00" waitingCount="0" stopTime="0.00" timeLoss="17.20" rerouteNo="0" devices="tripinfo_NS_167" vType="car" speedFactor="0.91" vaporized=""/>
    <tripinfo id="EW_168" depart="171.00" departLane="4i_0" departPos="4.10" departSpeed="0.00" departDelay="3.00" arrival="267.00" arrivalLane="1o_0" arrivalPos="492.80" arrivalSpeed="9.29" duration="96.00" routeLength="990.53" waitingTime="3.00" waitingCount="1" stopTime="0.00" timeLoss="18.88" rerouteNo="0" devices="tripinfo_EW_168" vType="car" speedFactor="0.91" vaporized=""/>
    <tripinfo id="EW_167" depart="167.00" departLane="4i_0" departPos="4.10" departSpeed="0.00" departDelay="0.00" arrival="268.00" arrivalLane="3o_0" arrivalPos="492.80" arrivalSpeed="8.90" duration="101.00" routeLength="995.90" waitingTime="6.00" waitingCount="2" stopTime="0.00" timeLoss="20.74" rerouteNo="0" devices="tripinfo_EW_167" vType="car" speedFactor="0.88" vaporized=""/>
    <tripinfo id="WE_179" depart="179.00" departLane="1i_0" departPos="4.10" departSpeed="0.00" departDelay="0.00" arrival="269.00" arrivalLane="2o_0" arrivalPos="492.80" arrivalSpeed="9.23" duration="90.00" routeLength="995.90" waitingTime="0.00" waitingCount="0" stopTime="0.00" timeLoss="14.71" rerouteNo="0" devices="tripinfo_WE_179" vType="car" speedFactor="0.94" vaporized=""/>
    <tripinfo id="EW_178" depart="178.00" departLane="4i_0" departPos="4.10" departSpeed="0.00" departDelay="0.00" arrival="270.00" arrivalLane="1o_0" arrivalPos="492.80" arrivalSpeed="10.07" duration="92.00" routeLength="990.53" waitingTime="1.00" waitingCount="1" stopTime="0.00" timeLoss="19.03" rerouteNo="0" devices="tripinfo_EW_178" vType="car" speedFactor="0.97" vaporized=""/>
    <tripinfo id="WE_180" depart="181.00" departLane="1i_0" departPos="4.10" departSpeed="0.00" departDelay="1.00" arrival="270.00" arrivalLane="3o_0" arrivalPos="492.80" arrivalSpeed="10.82" duration="89.00" routeLength="990.53" waitingTime="4.00" waitingCount="2" stopTime="0.00" timeLoss="22.26" rerouteNo="0" devices="tripinfo_WE_180" vType="car" speedFactor="1.06" vaporized=""/>
    <tripinfo id="EW_172" depart="174.00" departLane="4i_0" departPos="4.10" departSpeed="0.00" departDelay="2.00" arrival="271.00" arrivalLane="2o_0" arrivalPos="492.80" arrivalSpeed="10.79" duration="97.00" routeLength="995.70" waitingTime="2.00" waitingCount="1" stopTime="0.00" timeLoss="27.36" rerouteNo="0" devices="tripinfo_EW_172" vType="car" speedFactor="1.02" vaporized=""/>
    <tripinfo id="EW_183" depart="183.00" departLane="4i_0" departPos="4.10" departSpeed="0.00" departDelay="0.00" arrival="273.00" arrivalLane="1o_0" arrivalPos="492.80" arrivalSpeed="9.88" duration="90.00" routeLength="990.53" waitingTime="0.00" waitingCount="0" stopTime="0.00" timeLoss="15.71" rerouteNo="0" devices="tripinfo_EW_183" vType="car" speedFactor="0.96" vaporized=""/>
    <tripinfo id="SN_169" depart="169.00" departLane="3i_0" departPos="10.10" departSpeed="0.00" departDelay="0.00" arrival="275.00" arrivalLane="1o_0" arrivalPos="492.80" arrivalSpeed="10.97" duration="106.00" routeLength="989.70" waitingTime="13.00" waitingCount="2" stopTime="0.00" timeLoss="37.11" rerouteNo="0" devices="tripinfo_SN_169" vType="truck" speedFactor="1.02" vaporized=""/>
    <tripinfo id="WE_191" depart="192.00" departLane="1i_0" departPos="10.10" departSpeed="0.00" departDelay="1.00" arrival="275.00" arrivalLane="3o_0" arrivalPos="492.80" arrivalSpeed="11.05" duration="83.00" routeLength="984.53" waitingTime="0.00" waitingCount="0" stopTime="0.00" timeLoss="13.12" rerouteNo="0" devices="tripinfo_WE_191" vType="truck" speedFactor="1.00" vaporized=""/>