<?xml version="1.0" encoding="UTF-8"?>

<!-- generated on 2024-05-05 18:23:20 by Eclipse SUMO sumo Version 1.19.0
<configuration xmlns:xsi="http://www.w3.org/2001/XMLSchema-instance" xsi:noNamespaceSchemaLocation="http://sumo.dlr.de/xsd/sumoConfiguration.xsd">

    <input>
        <net-file value="twoone.net.xml"/>
        <route-files value="route_gen.rou.xml"/>
    </input>

    <output>
        <tripinfo-output value="tripinfo_epi464.xml"/>
    </output>

    <report>
        <no-warnings value="true"/>
    </report>

    <traci_server>
        <remote-port value="46049"/>
    </traci_server>

</configuration>
-->

<tripinfos xmlns:xsi="http://www.w3.org/2001/XMLSchema-instance" xsi:noNamespaceSchemaLocation="http://sumo.dlr.de/xsd/tripinfo_file.xsd">
    <tripinfo id="NS_1" depart="1.00" departLane="2i_0" departPos="4.10" departSpeed="0.00" departDelay="0.00" arrival="77.00" arrivalLane="1o_0" arrivalPos="492.80" arrivalSpeed="10.74" duration="76.00" routeLength="995.90" waitingTime="0.00" waitingCount="0" stopTime="0.00" timeLoss="9.19" rerouteNo="0" devices="tripinfo_NS_1" vType="car" speedFactor="1.06" vaporized=""/>
    <tripinfo id="EW_9" depart="9.00" departLane="4i_0" departPos="4.10" departSpeed="0.00" departDelay="0.00" arrival="85.00" arrivalLane="2o_0" arrivalPos="492.80" arrivalSpeed="11.94" duration="76.00" routeLength="995.70" waitingTime="0.00" waitingCount="0" stopTime="0.00" timeLoss="10.57" rerouteNo="0" devices="tripinfo_EW_9" vType="car" speedFactor="1.08" vaporized=""/>
    <tripinfo id="NS_8" depart="8.00" departLane="2i_0" departPos="4.10" departSpeed="0.00" departDelay="0.00" arrival="95.00" arrivalLane="4o_0" arrivalPos="492.80" arrivalSpeed="9.26" duration="87.00" routeLength="990.53" waitingTime="2.00" waitingCount="1" stopTime="0.00" timeLoss="12.15" rerouteNo="0" devices="tripinfo_NS_8" vType="car" speedFactor="0.94" vaporized=""/>
    <tripinfo id="NS_14" depart="14.00" departLane="2i_0" departPos="10.10" departSpeed="0.00" departDelay="0.00" arrival="104.00" arrivalLane="1o_0" arrivalPos="492.80" arrivalSpeed="10.98" duration="90.00" routeLength="989.90" waitingTime="1.00" waitingCount="1" stopTime="0.00" timeLoss="20.72" rerouteNo="0" devices="tripinfo_NS_14" vType="truck" speedFactor="1.02" vaporized=""/>
    <tripinfo id="SN_26" depart="26.00" departLane="3i_0" departPos="4.10" departSpeed="0.00" departDelay="0.00" arrival="106.00" arrivalLane="1o_0" arrivalPos="492.80" arrivalSpeed="12.06" duration="80.00" routeLength="995.70" waitingTime="0.00" waitingCount="0" stopTime="0.00" timeLoss="14.78" rerouteNo="0" devices="tripinfo_SN_26" vType="car" speedFactor="1.09" vaporized=""/>
    <tripinfo id="EW_14" depart="14.00" departLane="4i_0" departPos="4.10" departSpeed="0.00" departDelay="0.00" arrival="109.00" arrivalLane="2o_0" arrivalPos="492.80" arrivalSpeed="8.24" duration="95.00" routeLength="995.70" waitingTime="0.00" waitingCount="0" stopTime="0.00" timeLoss="9.87" rerouteNo="0" devices="tripinfo_EW_14" vType="car" speedFactor="0.83" vaporized=""/>
    <tripinfo id="NS_33" depart="33.00" departLane="2i_0" departPos="4.10" departSpeed="0.00" departDelay="0.00" arrival="110.00" arrivalLane="4o_0" arrivalPos="492.80" arrivalSpeed="11.31" duration="77.00" routeLength="990.53" waitingTime="0.00" waitingCount="0" stopTime="0.00" timeLoss="7.93" rerouteNo="0" devices="tripinfo_NS_33" vType="car" speedFactor="1.03" vaporized=""/>
    <tripinfo id="WE_9" depart="9.00" departLane="1i_0" departPos="4.10" departSpeed="0.00" departDelay="0.00" arrival="113.00" arrivalLane="4o_0" arrivalPos="492.80" arrivalSpeed="10.66" duration="104.00" routeLength="995.70" waitingTime="21.00" waitingCount="2" stopTime="0.00" timeLoss="34.00" rerouteNo="0" devices="tripinfo_WE_9" vType="car" speedFactor="1.01" vaporized=""/>
    <tripinfo id="EW_22" depart="22.00" departLane="4i_0" departPos="4.10" departSpeed="0.00" departDelay="0.00" arrival="120.00" arrivalLane="3o_0" arrivalPos="492.80" arrivalSpeed="9.67" duration="98.00" routeLength="995.90" waitingTime="8.00" waitingCount="2" stopTime="0.00" timeLoss="22.55" rerouteNo="0" devices="tripinfo_EW_22" vType="car" speedFactor="0.94" vaporized=""/>
    <tripinfo id="WE_10" depart="13.00" departLane="1i_0" departPos="10.10" departSpeed="0.00" departDelay="3.00" arrival="123.00" arrivalLane="4o_0" arrivalPos="492.80" arrivalSpeed="11.06" duration="110.00" routeLength="989.70" waitingTime="13.00" waitingCount="2" stopTime="0.00" timeLoss="40.06" rerouteNo="0" devices="tripinfo_WE_10" vType="truck" speedFactor="1.02" vaporized=""/>
    <tripinfo id="SN_41" depart="41.00" departLane="3i_0" departPos="4.10" departSpeed="0.00" departDelay="0.00" arrival="125.00" arrivalLane="4o_0" arrivalPos="492.80" arrivalSpeed="11.21" duration="84.00" routeLength="995.90" waitingTime="4.00" waitingCount="1" stopTime="0.00" timeLoss="20.72" rerouteNo="0" devices="tripinfo_SN_41" vType="car" speedFactor="1.12" vaporized=""/>
    <tripinfo id="EW_26" depart="26.00" departLane="4i_0" departPos="4.10" departSpeed="0.00" departDelay="0.00" arrival="127.00" arrivalLane="1o_0" arrivalPos="492.80" arrivalSpeed="9.46" duration="101.00" routeLength="990.53" waitingTime="2.00" waitingCount="2" stopTime="0.00" timeLoss="18.21" rerouteNo="0" devices="tripinfo_EW_26" vType="car" speedFactor="0.86" vaporized=""/>
    <tripinfo id="EW_36" depart="36.00" departLane="4i_0" departPos="4.10" departSpeed="0.00" departDelay="0.00" arrival="129.00" arrivalLane="2o_0" arrivalPos="492.80" arrivalSpeed="10.78" duration="93.00" routeLength="995.70" waitingTime="6.00" waitingCount="1" stopTime="0.00" timeLoss="24.94" rerouteNo="0" devices="tripinfo_EW_36" vType="car" speedFactor="1.05" vaporized=""/>
    <tripinfo id="WE_21" depart="21.00" departLane="1i_0" departPos="4.10" departSpeed="0.00" departDelay="0.00" arrival="131.00" arrivalLane="3o_0" arrivalPos="492.80" arrivalSpeed="9.72" duration="110.00" routeLength="990.53" waitingTime="10.00" waitingCount="2" stopTime="0.00" timeLoss="30.33" rerouteNo="0" devices="tripinfo_WE_21" vType="car" speedFactor="0.89" vaporized=""/>
    <tripinfo id="EW_50" depart="50.00" departLane="4i_0" departPos="4.10" departSpeed="0.00" departDelay="0.00" arrival="134.00" arrivalLane="1o_0" arrivalPos="492.80" arrivalSpeed="10.35" duration="84.00" routeLength="990.53" waitingTime="0.00" waitingCount="0" stopTime="0.00" timeLoss="12.34" rerouteNo="0" devices="tripinfo_EW_50" vType="car" speedFactor="0.99" vaporized=""/>
    <tripinfo id="WE_54" depart="54.00" departLane="1i_0" departPos="4.10" departSpeed="0.00" departDelay="0.00" arrival="139.00" arrivalLane="2o_0" arrivalPos="492.80" arrivalSpeed="9.40" duration="85.00" routeLength="995.90" waitingTime="0.00" waitingCount="0" stopTime="0.00" timeLoss="8.36" rerouteNo="0" devices="tripinfo_WE_54" vType="car" speedFactor="0.93" vaporized=""/>
    <tripinfo id="WE_58" depart="58.00" departLane="1i_0" departPos="4.10" departSpeed="0.00" departDelay="0.00" arrival="142.00" arrivalLane="3o_0" arrivalPos="492.80" arrivalSpeed="10.24" duration="84.00" routeLength="990.53" waitingTime="0.00" waitingCount="0" stopTime="0.00" timeLoss="8.48" rerouteNo="0" devices="tripinfo_WE_58" vType="car" speedFactor="0.94" vaporized=""/>
    <tripinfo id="NS_60" depart="60.00" departLane="2i_0" departPos="4.10" departSpeed="0.00" departDelay="0.00" arrival="144.00" arrivalLane="4o_0" arrivalPos="492.80" arrivalSpeed="10.24" duration="84.00" routeLength="990.53" waitingTime="0.00" waitingCount="0" stopTime="0.00" timeLoss="8.73" rerouteNo="0" devices="tripinfo_NS_60" vType="car" speedFactor="0.94" vaporized=""/>
    <tripinfo id="SN_62" depart="62.00" departLane="3i_0" departPos="4.10" departSpeed="0.00" departDelay="0.00" arrival="146.00" arrivalLane="4o_0" arrivalPos="492.80" arrivalSpeed="12.49" duration="84.00" routeLength="995.90" waitingTime="0.00" waitingCount="0" stopTime="0.00" timeLoss="22.44" rerouteNo="0" devices="tripinfo_SN_62" vType="car" speedFactor="1.16" vaporized=""/>
    <tripinfo id="SN_54" depart="54.00" departLane="3i_0" departPos="4.10" departSpeed="0.00" departDelay="0.00" arrival="148.00" arrivalLane="1o_0" arrivalPos="492.80" arrivalSpeed="8.53" duration="94.00" routeLength="995.70" waitingTime="2.00" waitingCount="1" stopTime="0.00" timeLoss="13.62" rerouteNo="0" devices="tripinfo_SN_54" vType="car" speedFactor="0.88" vaporized=""/>
    <tripinfo id="NS_65" depart="65.00" departLane="2i_0" departPos="4.10" departSpeed="0.00" departDelay="0.00" arrival="150.00" arrivalLane="1o_0" arrivalPos="492.80" arrivalSpeed="10.32" duration="85.00" routeLength="995.90" waitingTime="0.00" waitingCount="0" stopTime="0.00" timeLoss="14.63" rerouteNo="0" devices="tripinfo_NS_65" vType="car" speedFactor="1.01" vaporized=""/>
    <tripinfo id="NS_93" depart="93.00" departLane="2i_0" departPos="4.10" departSpeed="0.00" departDelay="0.00" arrival="161.00" arrivalLane="4o_0" arrivalPos="492.80" arrivalSpeed="12.96" duration="68.00" routeLength="990.53" waitingTime="0.00" waitingCount="0" stopTime="0.00" timeLoss="8.32" rerouteNo="0" devices="tripinfo_NS_93" vType="car" speedFactor="1.18" vaporized=""/>
    <tripinfo id="EW_69" depart="69.00" departLane="4i_0" departPos="4.10" departSpeed="0.00" departDelay="0.00" arrival="162.00" arrivalLane="1o_0" arrivalPos="492.80" arrivalSpeed="10.67" duration="93.00" routeLength="990.53" waitingTime="7.00" waitingCount="1" stopTime="0.00" timeLoss="20.62" rerouteNo="0" devices="tripinfo_EW_69" vType="car" speedFactor="0.97" vaporized=""/>
    <tripinfo id="SN_64" depart="65.00" departLane="3i_0" departPos="4.10" departSpeed="0.00" departDelay="1.00" arrival="164.00" arrivalLane="1o_0" arrivalPos="492.80" arrivalSpeed="10.63" duration="99.00" routeLength="995.70" waitingTime="13.00" waitingCount="1" stopTime="0.00" timeLoss="29.18" rerouteNo="0" devices="tripinfo_SN_64" vType="car" speedFactor="1.02" vaporized=""/>
    <tripinfo id="NS_79" depart="79.00" departLane="2i_0" departPos="4.10" departSpeed="0.00" departDelay="0.00" arrival="174.00" arrivalLane="1o_0" arrivalPos="492.80" arrivalSpeed="8.96" duration="95.00" routeLength="995.90" waitingTime="1.00" waitingCount="1" stopTime="0.00" timeLoss="14.15" rerouteNo="0" devices="tripinfo_NS_79" vType="car" speedFactor="0.87" vaporized=""/>
    <tripinfo id="WE_75" depart="75.00" departLane="1i_0" departPos="10.10" departSpeed="0.00" departDelay="0.00" arrival="176.00" arrivalLane="4o_0" arrivalPos="492.80" arrivalSpeed="10.21" duration="101.00" routeLength="989.70" waitingTime="2.00" waitingCount="2" stopTime="0.00" timeLoss="26.41" rerouteNo="0" devices="tripinfo_WE_75" vType="truck" speedFactor="0.94" vaporized=""/>
    <tripinfo id="WE_97" depart="97.00" departLane="1i_0" departPos="4.10" departSpeed="0.00" departDelay="0.00" arrival="178.00" arrivalLane="4o_0" arrivalPos="492.80" arrivalSpeed="12.92" duration="81.00" routeLength="995.70" waitingTime="0.00" waitingCount="0" stopTime="0.00" timeLoss="20.70" rerouteNo="0" devices="tripinfo_WE_97" vType="car" speedFactor="1.17" vaporized=""/>
    <tripinfo id="EW_93" depart="93.00" departLane="4i_0" departPos="4.10" departSpeed="0.00" departDelay="0.00" arrival="180.00" arrivalLane="1o_0" arrivalPos="492.80" arrivalSpeed="10.25" duration="87.00" routeLength="990.53" waitingTime="1.00" waitingCount="1" stopTime="0.00" timeLoss="11.02" rerouteNo="0" devices="tripinfo_EW_93" vType="car" speedFactor="0.93" vaporized=""/>
    <tripinfo id="SN_89" depart="89.00" departLane="3i_0" departPos="4.10" departSpeed="0.00" departDelay="0.00" arrival="182.00" arrivalLane="1o_0" arrivalPos="492.80" arrivalSpeed="9.81" duration="93.00" routeLength="995.70" waitingTime="0.00" waitingCount="0" stopTime="0.00" timeLoss="18.37" rerouteNo="0" devices="tripinfo_SN_89" vType="car" speedFactor="0.95" vaporized=""/>
    <tripinfo id="SN_77" depart="77.00" departLane="3i_0" departPos="4.10" departSpeed="0.00" departDelay="0.00" arrival="183.00" arrivalLane="2o_0" arrivalPos="492.80" arrivalSpeed="8.43" duration="106.00" routeLength="990.53" waitingTime="7.00" waitingCount="1" stopTime="0.00" timeLoss="20.91" rerouteNo="0" devices="tripinfo_SN_77" vType="car" speedFactor="0.83" vaporized=""/>
    <tripinfo id="WE_86" depart="86.00" departLane="1i_0" departPos="4.10" departSpeed="0.00" departDelay="0.00" arrival="183.00" arrivalLane="3o_0" arrivalPos="492.80" arrivalSpeed="9.98" duration="97.00" routeLength="990.53" waitingTime="3.00" waitingCount="2" stopTime="0.00" timeLoss="20.41" rerouteNo="0" devices="tripinfo_WE_86" vType="car" speedFactor="0.92" vaporized=""/>
    <tripinfo id="SN_100" depart="100.00" departLane="3i_0" departPos="4.10" departSpeed="0.00" departDelay="0.00" arrival="184.00" arrivalLane="1o_0" arrivalPos="492.80" arrivalSpeed="10.15" duration="84.00" routeLength="995.70" waitingTime="0.00" waitingCount="0" stopTime="0.00" timeLoss="12.58" rerouteNo="0" devices="tripinfo_SN_100" vType="car" speedFactor="0.99" vaporized=""/>
    <tripinfo id="SN_92" depart="92.00" departLane="3i_0" departPos="4.10" departSpeed="0.00" departDelay="0.00" arrival="185.00" arrivalLane="2o_0" arrivalPos="492.80" arrivalSpeed="11.55" duration="93.00" routeLength="990.53" waitingTime="0.00" waitingCount="0" stopTime="0.00" timeLoss="30.51" rerouteNo="0" devices="tripinfo_SN_92" vType="car" speedFactor="1.13" vaporized=""/>
    <tripinfo id="WE_95" depart="95.00" departLane="1i_0" departPos="4.10" departSpeed="0.00" departDelay="0.00" arrival="185.00" arrivalLane="3o_0" arrivalPos="492.80" arrivalSpeed="11.91" duration="90.00" routeLength="990.53" waitingTime="2.00" waitingCount="2" stopTime="0.00" timeLoss="28.79" rerouteNo="0" devices="tripinfo_WE_95" vType="car" speedFactor="1.15" vaporized=""/>
    <tripinfo id="WE_111" depart="111.00" departLane="1i_0" departPos="4.10" departSpeed="0.00" departDelay="0.00" arrival="190.00" arrivalLane="4o_0" arrivalPos="492.80" arrivalSpeed="13.04" duration="79.00" routeLength="995.70" waitingTime="2.00" waitingCount="1" stopTime="0.00" timeLoss="18.26" rerouteNo="0" devices="tripinfo_WE_111" vType="car" speedFactor="1.18" vaporized=""/>
    <tripinfo id="EW_95" depart="96.00" departLane="4i_0" departPos="10.10" departSpeed="0.00" departDelay="1.00" arrival="192.00" arrivalLane="3o_0" arrivalPos="492.80" arrivalSpeed="10.55" duration="96.00" routeLength="989.90" waitingTime="5.00" waitingCount="1" stopTime="0.00" timeLoss="25.40" rerouteNo="0" devices="tripinfo_EW_95" vType="truck" speedFactor="1.00" vaporized=""/>
    <tripinfo id="SN_109" depart="109.00" departLane="3i_0" departPos="4.10" departSpeed="0.00" departDelay="0.00" arrival="194.00" arrivalLane="2o_0" arrivalPos="492.80" arrivalSpeed="9.89" duration="85.00" routeLength="990.53" waitingTime="2.00" waitingCount="1" stopTime="0.00" timeLoss="12.11" rerouteNo="0" devices="tripinfo_SN_109" vType="car" speedFactor="0.97" vaporized=""/>
    <tripinfo id="SN_118" depart="118.00" departLane="3i_0" departPos="4.10" departSpeed="0.00" departDelay="0.00" arrival="196.00" arrivalLane="2o_0" arrivalPos="492.80" arrivalSpeed="10.41" duration="78.00" routeLength="990.53" waitingTime="0.00" waitingCount="0" stopTime="0.00" timeLoss="8.84" rerouteNo="0" devices="tripinfo_SN_118" vType="car" speedFactor="1.03" vaporized=""/>
    <tripinfo id="EW_109" depart="110.00" departLane="4i_0" departPos="4.10" departSpeed="0.00" departDelay="1.00" arrival="199.00" arrivalLane="2o_0" arrivalPos="492.80" arrivalSpeed="10.57" duration="89.00" routeLength="995.70" waitingTime="2.00" waitingCount="1" stopTime="0.00" timeLoss="19.03" rerouteNo="0" devices="tripinfo_EW_109" vType="car" speedFactor="1.02" vaporized=""/>
    <tripinfo id="EW_112" depart="113.00" departLane="4i_0" departPos="4.10" departSpeed="0.00" departDelay="1.00" arrival="199.00" arrivalLane="1o_0" arrivalPos="492.80" arrivalSpeed="11.29" duration="86.00" routeLength="990.53" waitingTime="3.00" waitingCount="2" stopTime="0.00" timeLoss="22.07" rerouteNo="0" devices="tripinfo_EW_112" vType="car" speedFactor="1.10" vaporized=""/>
    <tripinfo id="SN_131" depart="132.00" departLane="3i_0" departPos="4.10" departSpeed="0.00" departDelay="1.00" arrival="210.00" arrivalLane="4o_0" arrivalPos="492.80" arrivalSpeed="11.28" duration="78.00" routeLength="995.90" waitingTime="0.00" waitingCount="0" stopTime="0.00" timeLoss="9.19" rerouteNo="0" devices="tripinfo_SN_131" vType="car" speedFactor="1.04" vaporized=""/>
    <tripinfo id="EW_115" depart="115.00" departLane="4i_0" departPos="4.10" departSpeed="0.00" departDelay="0.00" arrival="211.00" arrivalLane="1o_0" arrivalPos="492.80" arrivalSpeed="8.87" duration="96.00" routeLength="990.53" waitingTime="1.00" waitingCount="1" stopTime="0.00" timeLoss="17.81" rerouteNo="0" devices="tripinfo_EW_115" vType="car" speedFactor="0.90" vaporized=""/>
    <tripinfo id="SN_129" depart="129.00" departLane="3i_0" departPos="4.10" departSpeed="0.00" departDelay="0.00" arrival="212.00" arrivalLane="2o_0" arrivalPos="492.80" arrivalSpeed="9.68" duration="83.00" routeLength="990.53" waitingTime="0.00" waitingCount="0" stopTime="0.00" timeLoss="8.52" rerouteNo="0" devices="tripinfo_SN_129" vType="car" speedFactor="0.96" vaporized=""/>
    <tripinfo id="SN_133" depart="134.00" departLane="3i_0" departPos="4.10" departSpeed="0.00" departDelay="1.00" arrival="213.00" arrivalLane="1o_0" arrivalPos="492.80" arrivalSpeed="10.52" duration="79.00" routeLength="995.70" waitingTime="1.00" waitingCount="1" stopTime="0.00" timeLoss="10.95" rerouteNo="0" devices="tripinfo_SN_133" vType="car" speedFactor="1.04" vaporized=""/>
    <tripinfo id="NS_137" depart="137.00" departLane="2i_0" departPos="4.10" departSpeed="0.00" departDelay="0.00" arrival="216.00" arrivalLane="4o_0" arrivalPos="492.80" arrivalSpeed="11.68" duration="79.00" routeLength="990.53" waitingTime="1.00" waitingCount="1" stopTime="0.00" timeLoss="13.93" rerouteNo="0" devices="tripinfo_NS_137" vType="car" speedFactor="1.09" vaporized=""/>
    <tripinfo id="WE_131" depart="131.00" departLane="1i_0" departPos="10.10" departSpeed="0.00" departDelay="0.00" arrival="217.00" arrivalLane="2o_0" arrivalPos="492.80" arrivalSpeed="11.20" duration="86.00" routeLength="989.90" waitingTime="0.00" waitingCount="0" stopTime="0.00" timeLoss="18.47" rerouteNo="0" devices="tripinfo_WE_131" vType="truck" speedFactor="1.05" vaporized=""/>
    <tripinfo id="WE_151" depart="151.00" departLane="1i_0" departPos="4.10" departSpeed="0.00" departDelay="0.00" arrival="220.00" arrivalLane="2o_0" arrivalPos="492.80" arrivalSpeed="12.46" duration="69.00" routeLength="995.90" waitingTime="0.00" waitingCount="0" stopTime="0.00" timeLoss="7.74" rerouteNo="0" devices="tripinfo_WE_151" vType="car" speedFactor="1.17" vaporized=""/>
    <tripinfo id="SN_137" depart="138.00" departLane="3i_0" departPos="4.10" departSpeed="0.00" departDelay="1.00" arrival="233.00" arrivalLane="2o_0" arrivalPos="492.80" arrivalSpeed="10.76" duration="95.00" routeLength="990.53" waitingTime="13.00" waitingCount="1" stopTime="0.00" timeLoss="23.70" rerouteNo="0" devices="tripinfo_SN_137" vType="car" speedFactor="1.00" vaporized=""/>
    <tripinfo id="EW_138" depart="138.00" departLane="4i_0" departPos="10.10" departSpeed="0.00" departDelay="0.00" arrival="238.00" arrivalLane="3o_0" arrivalPos="492.80" arrivalSpeed="10.03" duration="100.00" routeLength="989.90" waitingTime="4.00" waitingCount="1" stopTime="0.00" timeLoss="25.30" rerouteNo="0" devices="tripinfo_EW_138" vType="truck" speedFactor="0.95" vaporized=""/>
    <tripinfo id="WE_155" depart="155.00" departLane="1i_0" departPos="4.10" departSpeed="0.00" departDelay="0.00" arrival="240.00" arrivalLane="3o_0" arrivalPos="492.80" arrivalSpeed="10.87" duration="85.00" routeLength="990.53" waitingTime="2.00" waitingCount="1" stopTime="0.00" timeLoss="20.45" rerouteNo="0" devices="tripinfo_WE_155" vType="car" speedFactor="1.10" vaporized=""/>
    <tripinfo id="SN_145" depart="145.00" departLane="3i_0" departPos="4.10" departSpeed="0.00" departDelay="0.00" arrival="245.00" arrivalLane="2o_0" arrivalPos="492.80" arrivalSpeed="9.44" duration="100.00" routeLength="990.53" waitingTime="0.00" waitingCount="0" stopTime="0.00" timeLoss="19.17" rerouteNo="0" devices="tripinfo_SN_145" vType="car" speedFactor="0.88" vaporized=""/>
    <tripinfo id="EW_159" depart="159.00" departLane="4i_0" departPos="4.10" departSpeed="0.00" departDelay="0.00" arrival="247.00" arrivalLane="2o_0" arrivalPos="492.80" arrivalSpeed="10.66" duration="88.00" routeLength="995.70" waitingTime="0.00" waitingCount="0" stopTime="0.00" timeLoss="17.56" rerouteNo="0" devices="tripinfo_EW_159" vType="car" speedFactor="1.00" vaporized=""/>
    <tripinfo id="SN_151" depart="151.00" departLane="3i_0" departPos="4.10" departSpeed="0.00" departDelay="0.00" arrival="248.00" arrivalLane="1o_0" arrivalPos="492.80" arrivalSpeed="10.36" duration="97.00" routeLength="995.70" waitingTime="1.00" waitingCount="1" stopTime="0.00" timeLoss="27.51" rerouteNo="0" devices="tripinfo_SN_151" vType="car" speedFactor="1.02" vaporized=""/>
    <tripinfo id="EW_147" depart="147.00" departLane="4i_0" departPos="4.10" departSpeed="0.00" departDelay="0.00" arrival="251.00" arrivalLane="3o_0" arrivalPos="492.80" arrivalSpeed="8.90" duration="104.00" routeLength="995.90" waitingTime="2.00" waitingCount="1" stopTime="0.00" timeLoss="20.82" rerouteNo="0" devices="tripinfo_EW_147" vType="car" speedFactor="0.85" vaporized=""/>
    <tripinfo id="SN_149" depart="149.00" departLane="3i_0" departPos="4.10" departSpeed="0.00" departDelay="0.00" arrival="251.00" arrivalLane="4o_0" arrivalPos="492.80" arrivalSpeed="8.36" duration="102.00" routeLength="995.90" waitingTime="1.00" waitingCount="1" stopTime="0.00" timeLoss="18.75" rerouteNo="0" devices="tripinfo_SN_149" vType="car" speedFactor="0.85" vaporized=""/>
    <tripinfo id="WE_161" depart="162.00" departLane="1i_0" departPos="4.10" departSpeed="0.00" departDelay="1.00" arrival="253.00" arrivalLane="3o_0" arrivalPos="492.80" arrivalSpeed="10.12" duration="91.00" routeLength="990.53" waitingTime="0.00" waitingCount="0" stopTime="0.00" timeLoss="20.09" rerouteNo="0" devices="tripinfo_WE_161" vType="car" speedFactor="1.00" vaporized=""/>
    <tripinfo id="NS_184" depart="185.00" departLane="2i_0" departPos="4.10" departSpeed="0.00" departDelay="1.00" arrival="258.00" arrivalLane="4o_0" arrivalPos="492.80" arrivalSpeed="11.97" duration="73.00" routeLength="990.53" waitingTime="0.00" waitingCount="0" stopTime="0.00" timeLoss="9.74" rerouteNo="0" devices="tripinfo_NS_184" vType="car" speedFactor="1.12" vaporized=""/>
    <tripinfo id="EW_166" depart="166.00" departLane="4i_0" departPos="4.10" departSpeed="0.00" departDelay="0.00" arrival="260.00" arrivalLane="1o_0" arrivalPos="492.80" arrivalSpeed="9.47" duration="94.00" routeLength="990.53" waitingTime="1.00" waitingCount="1" stopTime="0.00" timeLoss="15.61" rerouteNo="0" devices="tripinfo_EW_166" vType="car" speedFactor="0.90" vaporized=""/>
    <tripinfo id="WE_184" depart="184.00" departLane="1i_0" departPos="4.10" departSpeed="0.00" departDelay="0.00" arrival="261.00" arrivalLane="4o_0" arrivalPos="492.80" arrivalSpeed="11.95" duration="77.00" routeLength="995.70" waitingTime="0.00" waitingCount="0" stopTime="0.00" timeLoss="11.82" rerouteNo="0" devices="tripinfo_WE_184" vType="car" speedFactor="1.08" vaporized=""/>
    <tripinfo id="SN_176" depart="176.00" departLane="3i_0" departPos="4.10" departSpeed="0.00" departDelay="0.00" arrival="262.00" arrivalLane="1o_0" arrivalPos="492.80" arrivalSpeed="12.48" duration="86.00" routeLength="995.70" waitingTime="0.00" waitingCount="0" stopTime="0.00" timeLoss="23.70" rerouteNo="0" devices="tripinfo_SN_176" vType="car" speedFactor="1.14" vaporized=""/>
    <tripinfo id="EW_186" depart="186.00" departLane="4i_0" departPos="4.10" departSpeed="0.00" departDelay="0.00" arrival="265.00" arrivalLane="1o_0" arrivalPos="492.80" arrivalSpeed="10.49" duration="79.00" routeLength="990.53" waitingTime="0.00" waitingCount="0" stopTime="0.00" timeLoss="9.25" rerouteNo="0" devices="tripinfo_EW_186" vType="car" speedFactor="1.02" vaporized=""/>
    <tripinfo id="EW_195" depart="195.00" departLane="4i_0" departPos="4.10" departSpeed="0.00" departDelay="0.00" arrival="272.00" arrivalLane="1o_0" arrivalPos="492.80" arrivalSpeed="10.47" duration="77.00" routeLength="990.53" waitingTime="0.00" waitingCount="0" stopTime="0.00" timeLoss="9.00" rerouteNo="0" devices="tripinfo_EW_195" vType="car" speedFactor="1.04" vaporized=""/>
    <tripinfo id="SN_177" depart="180.00" departLane="3i_0" departPos="10.10" departSpeed="0.00" departDelay="3.00" arrival="274.00" arrivalLane="2o_0" arrivalPos="492.80" arrivalSpeed="11.13" duration="94.00" routeLength="984.53" waitingTime="5.00" waitingCount="1" stopTime="0.00" timeLoss="24.10" rerouteNo="0" devices="tripinfo_SN_177" vType="truck" speedFactor="1.01" vaporized=""/>
    <tripinfo id="NS_190" depart="190.00" departLane="2i_0" departPos="4.10" departSpeed="0.00" departDelay="0.00" arrival="279.00" arrivalLane="4o_0" arrivalPos="492.80" arrivalSpeed="9.14" duration="89.00" routeLength="990.53" waitingTime="0.00" waitingCount="0" stopTime="0.00" timeLoss="8.96" rerouteNo="0" devices="tripinfo_NS_190" vType="car" speedFactor="0.88" vaporized=""/>
    <tripinfo id="EW_198" depart="198.00" departLane="4i_0" departPos="4.10" departSpeed="0.00" departDelay="0.00" arrival="279.00" arrivalLane="1o_0" arrivalPos="492.80" arrivalSpeed="10.07" duration="81.00" routeLength="990.53" waitingTime="0.00" waitingCount="0" stopTime="0.00" timeLoss="11.67" rerouteNo="0" devices="tripinfo_EW_198" vType="car" speedFactor="1.02" vaporized=""/>
    <tripinfo id="WE_189" depart="189.00" departLane="1i_0" departPos="4.10" departSpeed="0.00" departDelay="0.00" arrival="281.00" arrivalLane="4o_0" arrivalPos="492.80" arrivalSpeed="10.33" duration="92.00" routeLength="995.70" waitingTime="1.00" waitingCount="1" stopTime="0.00" timeLoss="19.96" rerouteNo="0" devices="tripinfo_WE_189" vType="car" speedFactor="0.99" vaporized=""/>
    <tripinfo id="WE_190" depart="191.00" departLane="1i_0" departPos="4.10" departSpeed="0.00" departDelay="1.00" arrival="283.00" arrivalLane="4o_0" arrivalPos="492.80" arrivalSpeed="9.84" duration="92.00" routeLength="995.70" waitingTime="0.00" waitingCount="0" stopTime="0.00" timeLoss="16.17" rerouteNo="0" devices="tripinfo_WE_190" vType="car" speedFactor="0.94" vaporized=""/>
    <tripinfo id="WE_191" depart="194.00" departLane="1i_0" departPos="4.10" departSpeed="0.00" departDelay="3.00" arrival="284.00" arrivalLane="2o_0" arrivalPos="492.80" arrivalSpeed="8.98" duration="90.00" routeLength="995.90" waitingTime="0.00" waitingCount="0" stopTime="0.00" timeLoss="12.06" rerouteNo="0" devices="tripinfo_WE_191" vType="car" speedFactor="0.91" vaporized=""/>
    <tripinfo id="SN_180" depart="185.00" departLane="3i_0" departPos="4.10" departSpeed="0.00" departDelay="5.00" arrival="285.00" arrivalLane="4o_0" arrivalPos="492.80" arrivalSpeed="10.04" duration="100.00" routeLength="995.90" waitingTime="4.00" waitingCount="2" stopTime="0.00" timeLoss="26.51" rerouteNo="0" devices="tripinfo_SN_180" vType="car" speedFactor="0.97" vaporized=""/>
    <tripinfo id="NS_202" depart="202.00" departLane="2i_0" departPos="4.10" departSpeed="0.00" departDelay="0.00" arrival="286.00" arrivalLane="3o_0" arrivalPos="492.80" arrivalSpeed="11.48" duration="84.00" routeLength="995.70" waitingTime="3.00" waitingCount="2" stopTime="0.00" timeLoss="16.53" rerouteNo="0" devices="tripinfo_NS_202" vType="car" speedFactor="1.06" vaporized=""/>
    <tripinfo id="WE_193" depart="197.00" departLane="1i_0" departPos="4.10" departSpeed="0.00" departDelay="4.00" arrival="290.00" arrivalLane="2o_0" arrivalPos="492.80" arrivalSpeed="9.88" duration="93.00" routeLength="995.90" waitingTime="1.00" waitingCount="1" stopTime="0.00" timeLoss="15.08" rerouteNo="0" devices="tripinfo_WE_193" vType="car" speedFactor="0.91" vaporized=""/>
    <tripinfo id="WE_200" depart="200.00" departLane="1i_0" departPos="4.10" departSpeed="0.00" departDelay="0.00" arrival="294.00" arrivalLane="2o_0" arrivalPos="492.80" arrivalSpeed="9.62" duration="94.00" routeLength="995.90" waitingTime="2.00" waitingCount="2" stopTime="0.00" timeLoss="20.77" rerouteNo="0" devices="tripinfo_WE_200" vType="car" speedFactor="0.97" vaporized=""/>
    <tripinfo id="EW_208" depart="210.00" departLane="4i_0" departPos="4.10" departSpeed="0.00" departDelay="2.00" arrival="296.00" arrivalLane="3o_0" arrivalPos="492.80" arrivalSpeed="9.90" duration="86.00" routeLength="995.90" waitingTime="0.00" waitingCount="0" stopTime="0.00" timeLoss="14.17" rerouteNo="0" devices="tripinfo_EW_208" vType="car" speedFactor="0.98" vaporized=""/>
    <tripinfo id="SN_198" depart="198.00" departLane="3i_0" departPos="4.10" departSpeed="0.00" departDelay="0.00" arrival="298.00" arrivalLane="1o_0" arrivalPos="492.80" arrivalSpeed="10.68" duration="100.00" routeLength="995.70" waitingTime="11.00" waitingCount="1" stopTime="0.00" timeLoss="30.45" rerouteNo="0" devices="tripinfo_SN_198" vType="car" speedFactor="1.02" vaporized=""/>
    <tripinfo id="SN_206" depart="206.00" departLane="3i_0" departPos="4.10" departSpeed="0.00" departDelay="0.00" arrival="305.00" arrivalLane="1o_0" arrivalPos="492.80" arrivalSpeed="10.84" duration="99.00" routeLength="995.70" waitingTime="11.00" waitingCount="2" stopTime="0.00" timeLoss="26.73" rerouteNo="0" devices="tripinfo_SN_206" vType="car" speedFactor="0.98" vaporized=""/>
    <tripinfo id="NS_215" depart="217.00" departLane="2i_0" departPos="10.10" departSpeed="0.00" departDelay="2.00" arrival="305.00" arrivalLane="3o_0" arrivalPos="492.80" arrivalSpeed="11.25" duration="88.00" routeLength="989.70" waitingTime="0.00" waitingCount="0" stopTime="0.00" timeLoss="20.01" rerouteNo="0" devices="tripinfo_NS_215" vType="truck" speedFactor="1.04" vaporized=""/>