<?xml version="1.0" encoding="UTF-8"?>

<!-- generated on 2024-05-05 16:41:19 by Eclipse SUMO sumo Version 1.19.0
<configuration xmlns:xsi="http://www.w3.org/2001/XMLSchema-instance" xsi:noNamespaceSchemaLocation="http://sumo.dlr.de/xsd/sumoConfiguration.xsd">

    <input>
        <net-file value="twoone.net.xml"/>
        <route-files value="route_gen.rou.xml"/>
    </input>

    <output>
        <tripinfo-output value="tripinfo_epi188.xml"/>
    </output>

    <report>
        <no-warnings value="true"/>
    </report>

    <traci_server>
        <remote-port value="60901"/>
    </traci_server>

</configuration>
-->

<tripinfos xmlns:xsi="http://www.w3.org/2001/XMLSchema-instance" xsi:noNamespaceSchemaLocation="http://sumo.dlr.de/xsd/tripinfo_file.xsd">
    <tripinfo id="EW_1" depart="1.00" departLane="4i_0" departPos="4.10" departSpeed="0.00" departDelay="0.00" arrival="78.00" arrivalLane="1o_0" arrivalPos="492.80" arrivalSpeed="10.69" duration="77.00" routeLength="990.53" waitingTime="0.00" waitingCount="0" stopTime="0.00" timeLoss="9.87" rerouteNo="0" devices="tripinfo_EW_1" vType="car" speedFactor="1.06" vaporized=""/>
    <tripinfo id="NS_13" depart="13.00" departLane="2i_0" departPos="4.10" departSpeed="0.00" departDelay="0.00" arrival="86.00" arrivalLane="4o_0" arrivalPos="492.80" arrivalSpeed="11.84" duration="73.00" routeLength="990.53" waitingTime="0.00" waitingCount="0" stopTime="0.00" timeLoss="7.89" rerouteNo="0" devices="tripinfo_NS_13" vType="car" speedFactor="1.08" vaporized=""/>
    <tripinfo id="SN_9" depart="9.00" departLane="3i_0" departPos="4.10" departSpeed="0.00" departDelay="0.00" arrival="96.00" arrivalLane="2o_0" arrivalPos="492.80" arrivalSpeed="10.03" duration="87.00" routeLength="990.53" waitingTime="2.00" waitingCount="1" stopTime="0.00" timeLoss="11.39" rerouteNo="0" devices="tripinfo_SN_9" vType="car" speedFactor="0.94" vaporized=""/>
    <tripinfo id="EW_11" depart="11.00" departLane="4i_0" departPos="4.10" departSpeed="0.00" departDelay="0.00" arrival="98.00" arrivalLane="2o_0" arrivalPos="492.80" arrivalSpeed="10.81" duration="87.00" routeLength="995.70" waitingTime="0.00" waitingCount="0" stopTime="0.00" timeLoss="16.29" rerouteNo="0" devices="tripinfo_EW_11" vType="car" speedFactor="1.01" vaporized=""/>
    <tripinfo id="EW_15" depart="15.00" departLane="4i_0" departPos="4.10" departSpeed="0.00" departDelay="0.00" arrival="100.00" arrivalLane="1o_0" arrivalPos="492.80" arrivalSpeed="10.45" duration="85.00" routeLength="990.53" waitingTime="1.00" waitingCount="1" stopTime="0.00" timeLoss="16.38" rerouteNo="0" devices="tripinfo_EW_15" vType="car" speedFactor="1.03" vaporized=""/>
    <tripinfo id="SN_30" depart="30.00" departLane="3i_0" departPos="4.10" departSpeed="0.00" departDelay="0.00" arrival="107.00" arrivalLane="2o_0" arrivalPos="492.80" arrivalSpeed="11.03" duration="77.00" routeLength="990.53" waitingTime="0.00" waitingCount="0" stopTime="0.00" timeLoss="11.91" rerouteNo="0" devices="tripinfo_SN_30" vType="car" speedFactor="1.09" vaporized=""/>
    <tripinfo id="SN_26" depart="26.00" departLane="3i_0" departPos="4.10" departSpeed="0.00" departDelay="0.00" arrival="111.00" arrivalLane="4o_0" arrivalPos="492.80" arrivalSpeed="9.91" duration="85.00" routeLength="995.90" waitingTime="0.00" waitingCount="0" stopTime="0.00" timeLoss="9.13" rerouteNo="0" devices="tripinfo_SN_26" vType="car" speedFactor="0.94" vaporized=""/>
    <tripinfo id="NS_25" depart="25.00" departLane="2i_0" departPos="10.10" departSpeed="0.00" departDelay="0.00" arrival="113.00" arrivalLane="1o_0" arrivalPos="492.80" arrivalSpeed="10.23" duration="88.00" routeLength="989.90" waitingTime="0.00" waitingCount="0" stopTime="0.00" timeLoss="13.04" rerouteNo="0" devices="tripinfo_NS_25" vType="truck" speedFactor="0.94" vaporized=""/>
    <tripinfo id="WE_29" depart="29.00" departLane="1i_0" departPos="4.10" departSpeed="0.00" departDelay="0.00" arrival="123.00" arrivalLane="4o_0" arrivalPos="492.80" arrivalSpeed="8.73" duration="94.00" routeLength="995.70" waitingTime="0.00" waitingCount="0" stopTime="0.00" timeLoss="11.06" rerouteNo="0" devices="tripinfo_WE_29" vType="car" speedFactor="0.86" vaporized=""/>
    <tripinfo id="EW_35" depart="35.00" departLane="4i_0" departPos="4.10" departSpeed="0.00" departDelay="0.00" arrival="124.00" arrivalLane="3o_0" arrivalPos="492.80" arrivalSpeed="12.25" duration="89.00" routeLength="995.90" waitingTime="5.00" waitingCount="2" stopTime="0.00" timeLoss="25.41" rerouteNo="0" devices="tripinfo_EW_35" vType="car" speedFactor="1.12" vaporized=""/>
    <tripinfo id="WE_32" depart="32.00" departLane="1i_0" departPos="4.10" departSpeed="0.00" departDelay="0.00" arrival="125.00" arrivalLane="4o_0" arrivalPos="492.80" arrivalSpeed="10.52" duration="93.00" routeLength="995.70" waitingTime="0.00" waitingCount="0" stopTime="0.00" timeLoss="23.41" rerouteNo="0" devices="tripinfo_WE_32" vType="car" speedFactor="1.03" vaporized=""/>
    <tripinfo id="SN_37" depart="37.00" departLane="3i_0" departPos="4.10" departSpeed="0.00" departDelay="0.00" arrival="126.00" arrivalLane="4o_0" arrivalPos="492.80" arrivalSpeed="10.39" duration="89.00" routeLength="995.90" waitingTime="0.00" waitingCount="0" stopTime="0.00" timeLoss="17.70" rerouteNo="0" devices="tripinfo_SN_37" vType="car" speedFactor="0.99" vaporized=""/>
    <tripinfo id="EW_22" depart="22.00" departLane="4i_0" departPos="4.10" departSpeed="0.00" departDelay="0.00" arrival="127.00" arrivalLane="2o_0" arrivalPos="492.80" arrivalSpeed="8.66" duration="105.00" routeLength="995.70" waitingTime="6.00" waitingCount="1" stopTime="0.00" timeLoss="20.08" rerouteNo="0" devices="tripinfo_EW_22" vType="car" speedFactor="0.83" vaporized=""/>
    <tripinfo id="EW_25" depart="25.00" departLane="4i_0" departPos="4.10" departSpeed="0.00" departDelay="0.00" arrival="129.00" arrivalLane="2o_0" arrivalPos="492.80" arrivalSpeed="11.21" duration="104.00" routeLength="995.70" waitingTime="6.00" waitingCount="1" stopTime="0.00" timeLoss="36.11" rerouteNo="0" devices="tripinfo_EW_25" vType="car" speedFactor="1.05" vaporized=""/>
    <tripinfo id="NS_46" depart="46.00" departLane="2i_0" departPos="4.10" departSpeed="0.00" departDelay="0.00" arrival="129.00" arrivalLane="1o_0" arrivalPos="492.80" arrivalSpeed="10.17" duration="83.00" routeLength="995.90" waitingTime="0.00" waitingCount="0" stopTime="0.00" timeLoss="7.47" rerouteNo="0" devices="tripinfo_NS_46" vType="car" speedFactor="0.94" vaporized=""/>
    <tripinfo id="WE_35" depart="35.00" departLane="1i_0" departPos="4.10" departSpeed="0.00" departDelay="0.00" arrival="131.00" arrivalLane="2o_0" arrivalPos="492.80" arrivalSpeed="10.43" duration="96.00" routeLength="995.90" waitingTime="3.00" waitingCount="1" stopTime="0.00" timeLoss="28.09" rerouteNo="0" devices="tripinfo_WE_35" vType="car" speedFactor="1.05" vaporized=""/>
    <tripinfo id="NS_47" depart="48.00" departLane="2i_0" departPos="4.10" departSpeed="0.00" departDelay="1.00" arrival="134.00" arrivalLane="4o_0" arrivalPos="492.80" arrivalSpeed="9.56" duration="86.00" routeLength="990.53" waitingTime="0.00" waitingCount="0" stopTime="0.00" timeLoss="10.28" rerouteNo="0" devices="tripinfo_NS_47" vType="car" speedFactor="0.94" vaporized=""/>
    <tripinfo id="WE_52" depart="52.00" departLane="1i_0" departPos="4.10" departSpeed="0.00" departDelay="0.00" arrival="135.00" arrivalLane="2o_0" arrivalPos="492.80" arrivalSpeed="10.26" duration="83.00" routeLength="995.90" waitingTime="0.00" waitingCount="0" stopTime="0.00" timeLoss="13.09" rerouteNo="0" devices="tripinfo_WE_52" vType="car" speedFactor="1.02" vaporized=""/>
    <tripinfo id="WE_38" depart="38.00" departLane="1i_0" departPos="4.10" departSpeed="0.00" departDelay="0.00" arrival="137.00" arrivalLane="4o_0" arrivalPos="492.80" arrivalSpeed="9.04" duration="99.00" routeLength="995.70" waitingTime="4.00" waitingCount="2" stopTime="0.00" timeLoss="22.33" rerouteNo="0" devices="tripinfo_WE_38" vType="car" speedFactor="0.93" vaporized=""/>
    <tripinfo id="NS_50" depart="51.00" departLane="2i_0" departPos="4.10" departSpeed="0.00" departDelay="1.00" arrival="139.00" arrivalLane="4o_0" arrivalPos="492.80" arrivalSpeed="12.60" duration="88.00" routeLength="990.53" waitingTime="1.00" waitingCount="1" stopTime="0.00" timeLoss="26.51" rerouteNo="0" devices="tripinfo_NS_50" vType="car" speedFactor="1.16" vaporized=""/>
    <tripinfo id="EW_42" depart="42.00" departLane="4i_0" departPos="4.10" departSpeed="0.00" departDelay="0.00" arrival="140.00" arrivalLane="1o_0" arrivalPos="492.80" arrivalSpeed="9.05" duration="98.00" routeLength="990.53" waitingTime="1.00" waitingCount="1" stopTime="0.00" timeLoss="17.93" rerouteNo="0" devices="tripinfo_EW_42" vType="car" speedFactor="0.88" vaporized=""/>
    <tripinfo id="NS_67" depart="67.00" departLane="2i_0" departPos="4.10" departSpeed="0.00" departDelay="0.00" arrival="141.00" arrivalLane="4o_0" arrivalPos="492.80" arrivalSpeed="12.21" duration="74.00" routeLength="990.53" waitingTime="1.00" waitingCount="1" stopTime="0.00" timeLoss="10.99" rerouteNo="0" devices="tripinfo_NS_67" vType="car" speedFactor="1.13" vaporized=""/>
    <tripinfo id="SN_57" depart="57.00" departLane="3i_0" departPos="4.10" departSpeed="0.00" departDelay="0.00" arrival="145.00" arrivalLane="2o_0" arrivalPos="492.80" arrivalSpeed="9.18" duration="88.00" routeLength="990.53" waitingTime="0.00" waitingCount="0" stopTime="0.00" timeLoss="8.72" rerouteNo="0" devices="tripinfo_SN_57" vType="car" speedFactor="0.89" vaporized=""/>
    <tripinfo id="EW_52" depart="52.00" departLane="4i_0" departPos="4.10" departSpeed="0.00" departDelay="0.00" arrival="147.00" arrivalLane="2o_0" arrivalPos="492.80" arrivalSpeed="10.80" duration="95.00" routeLength="995.70" waitingTime="1.00" waitingCount="1" stopTime="0.00" timeLoss="24.70" rerouteNo="0" devices="tripinfo_EW_52" vType="car" speedFactor="1.01" vaporized=""/>
    <tripinfo id="EW_53" depart="54.00" departLane="4i_0" departPos="4.10" departSpeed="0.00" departDelay="1.00" arrival="149.00" arrivalLane="2o_0" arrivalPos="492.80" arrivalSpeed="10.76" duration="95.00" routeLength="995.70" waitingTime="0.00" waitingCount="0" stopTime="0.00" timeLoss="21.94" rerouteNo="0" devices="tripinfo_EW_53" vType="car" speedFactor="0.97" vaporized=""/>
    <tripinfo id="WE_64" depart="64.00" departLane="1i_0" departPos="4.10" departSpeed="0.00" departDelay="0.00" arrival="152.00" arrivalLane="4o_0" arrivalPos="492.80" arrivalSpeed="9.79" duration="88.00" routeLength="995.70" waitingTime="0.00" waitingCount="0" stopTime="0.00" timeLoss="10.93" rerouteNo="0" devices="tripinfo_WE_64" vType="car" speedFactor="0.92" vaporized=""/>
    <tripinfo id="NS_77" depart="77.00" departLane="2i_0" departPos="4.10" departSpeed="0.00" departDelay="0.00" arrival="154.00" arrivalLane="4o_0" arrivalPos="492.80" arrivalSpeed="12.07" duration="77.00" routeLength="990.53" waitingTime="0.00" waitingCount="0" stopTime="0.00" timeLoss="16.49" rerouteNo="0" devices="tripinfo_NS_77" vType="car" speedFactor="1.17" vaporized=""/>
    <tripinfo id="WE_85" depart="85.00" departLane="1i_0" departPos="4.10" departSpeed="0.00" departDelay="0.00" arrival="155.00" arrivalLane="3o_0" arrivalPos="492.80" arrivalSpeed="12.46" duration="70.00" routeLength="990.53" waitingTime="0.00" waitingCount="0" stopTime="0.00" timeLoss="10.22" rerouteNo="0" devices="tripinfo_WE_85" vType="car" speedFactor="1.18" vaporized=""/>
    <tripinfo id="WE_81" depart="81.00" departLane="1i_0" departPos="4.10" departSpeed="0.00" departDelay="0.00" arrival="162.00" arrivalLane="4o_0" arrivalPos="492.80" arrivalSpeed="10.44" duration="81.00" routeLength="995.70" waitingTime="0.00" waitingCount="0" stopTime="0.00" timeLoss="10.02" rerouteNo="0" devices="tripinfo_WE_81" vType="car" speedFactor="0.99" vaporized=""/>
    <tripinfo id="WE_98" depart="100.00" departLane="1i_0" departPos="10.10" departSpeed="0.00" departDelay="2.00" arrival="182.00" arrivalLane="3o_0" arrivalPos="492.80" arrivalSpeed="11.11" duration="82.00" routeLength="984.53" waitingTime="0.00" waitingCount="0" stopTime="0.00" timeLoss="13.13" rerouteNo="0" devices="tripinfo_WE_98" vType="truck" speedFactor="1.02" vaporized=""/>
    <tripinfo id="NS_105" depart="107.00" departLane="2i_0" departPos="4.10" departSpeed="0.00" departDelay="2.00" arrival="188.00" arrivalLane="3o_0" arrivalPos="492.80" arrivalSpeed="11.53" duration="81.00" routeLength="995.70" waitingTime="1.00" waitingCount="1" stopTime="0.00" timeLoss="15.53" rerouteNo="0" devices="tripinfo_NS_105" vType="car" speedFactor="1.09" vaporized=""/>
    <tripinfo id="WE_105" depart="105.00" departLane="1i_0" departPos="4.10" departSpeed="0.00" departDelay="0.00" arrival="189.00" arrivalLane="2o_0" arrivalPos="492.80" arrivalSpeed="10.39" duration="84.00" routeLength="995.90" waitingTime="0.00" waitingCount="0" stopTime="0.00" timeLoss="10.35" rerouteNo="0" devices="tripinfo_WE_105" vType="car" speedFactor="0.96" vaporized=""/>
    <tripinfo id="NS_110" depart="110.00" departLane="2i_0" departPos="4.10" departSpeed="0.00" departDelay="0.00" arrival="190.00" arrivalLane="3o_0" arrivalPos="492.80" arrivalSpeed="11.81" duration="80.00" routeLength="995.70" waitingTime="0.00" waitingCount="0" stopTime="0.00" timeLoss="14.24" rerouteNo="0" devices="tripinfo_NS_110" vType="car" speedFactor="1.09" vaporized=""/>
    <tripinfo id="WE_120" depart="120.00" departLane="1i_0" departPos="4.10" departSpeed="0.00" departDelay="0.00" arrival="200.00" arrivalLane="2o_0" arrivalPos="492.80" arrivalSpeed="9.93" duration="80.00" routeLength="995.90" waitingTime="0.00" waitingCount="0" stopTime="0.00" timeLoss="8.34" rerouteNo="0" devices="tripinfo_WE_120" vType="car" speedFactor="1.00" vaporized=""/>
    <tripinfo id="EW_72" depart="72.00" departLane="4i_0" departPos="4.10" departSpeed="0.00" departDelay="0.00" arrival="207.00" arrivalLane="3o_0" arrivalPos="492.80" arrivalSpeed="12.57" duration="135.00" routeLength="995.90" waitingTime="58.00" waitingCount="1" stopTime="0.00" timeLoss="73.85" rerouteNo="0" devices="tripinfo_EW_72" vType="car" speedFactor="1.15" vaporized=""/>
    <tripinfo id="EW_76" depart="76.00" departLane="4i_0" departPos="4.10" departSpeed="0.00" departDelay="0.00" arrival="224.00" arrivalLane="3o_0" arrivalPos="492.80" arrivalSpeed="10.79" duration="148.00" routeLength="995.90" waitingTime="60.00" waitingCount="2" stopTime="0.00" timeLoss="77.21" rerouteNo="0" devices="tripinfo_EW_76" vType="car" speedFactor="1.01" vaporized=""/>
    <tripinfo id="SN_60" depart="60.00" departLane="3i_0" departPos="4.10" departSpeed="0.00" departDelay="0.00" arrival="227.00" arrivalLane="1o_0" arrivalPos="492.80" arrivalSpeed="8.61" duration="167.00" routeLength="995.70" waitingTime="66.00" waitingCount="1" stopTime="0.00" timeLoss="80.87" rerouteNo="0" devices="tripinfo_SN_60" vType="car" speedFactor="0.83" vaporized=""/>
    <tripinfo id="NS_129" depart="129.00" departLane="2i_0" departPos="4.10" departSpeed="0.00" departDelay="0.00" arrival="229.00" arrivalLane="1o_0" arrivalPos="492.80" arrivalSpeed="9.19" duration="100.00" routeLength="995.90" waitingTime="4.00" waitingCount="1" stopTime="0.00" timeLoss="18.87" rerouteNo="0" devices="tripinfo_NS_129" vType="car" speedFactor="0.88" vaporized=""/>
    <tripinfo id="SN_63" depart="63.00" departLane="3i_0" departPos="4.10" departSpeed="0.00" departDelay="0.00" arrival="230.00" arrivalLane="2o_0" arrivalPos="492.80" arrivalSpeed="9.10" duration="167.00" routeLength="990.53" waitingTime="69.00" waitingCount="2" stopTime="0.00" timeLoss="86.44" rerouteNo="0" devices="tripinfo_SN_63" vType="car" speedFactor="0.87" vaporized=""/>
    <tripinfo id="WE_148" depart="148.00" departLane="1i_0" departPos="4.10" departSpeed="0.00" departDelay="0.00" arrival="232.00" arrivalLane="2o_0" arrivalPos="492.80" arrivalSpeed="12.89" duration="84.00" routeLength="995.90" waitingTime="0.00" waitingCount="0" stopTime="0.00" timeLoss="22.95" rerouteNo="0" devices="tripinfo_WE_148" vType="car" speedFactor="1.17" vaporized=""/>
    <tripinfo id="SN_64" depart="66.00" departLane="3i_0" departPos="4.10" departSpeed="0.00" departDelay="2.00" arrival="233.00" arrivalLane="4o_0" arrivalPos="492.80" arrivalSpeed="9.34" duration="167.00" routeLength="995.90" waitingTime="70.00" waitingCount="3" stopTime="0.00" timeLoss="92.02" rerouteNo="0" devices="tripinfo_SN_64" vType="car" speedFactor="0.95" vaporized=""/>
    <tripinfo id="SN_70" depart="70.00" departLane="3i_0" departPos="4.10" departSpeed="0.00" departDelay="0.00" arrival="235.00" arrivalLane="2o_0" arrivalPos="492.80" arrivalSpeed="9.07" duration="165.00" routeLength="990.53" waitingTime="62.00" waitingCount="2" stopTime="0.00" timeLoss="89.10" rerouteNo="0" devices="tripinfo_SN_70" vType="car" speedFactor="0.93" vaporized=""/>
    <tripinfo id="SN_71" depart="73.00" departLane="3i_0" departPos="4.10" departSpeed="0.00" departDelay="2.00" arrival="235.00" arrivalLane="1o_0" arrivalPos="492.80" arrivalSpeed="12.80" duration="162.00" routeLength="995.70" waitingTime="64.00" waitingCount="4" stopTime="0.00" timeLoss="101.66" rerouteNo="0" devices="tripinfo_SN_71" vType="car" speedFactor="1.18" vaporized=""/>
    <tripinfo id="EW_124" depart="126.00" departLane="4i_0" departPos="4.10" departSpeed="0.00" departDelay="2.00" arrival="240.00" arrivalLane="2o_0" arrivalPos="492.80" arrivalSpeed="9.18" duration="114.00" routeLength="995.70" waitingTime="12.00" waitingCount="4" stopTime="0.00" timeLoss="35.58" rerouteNo="0" devices="tripinfo_EW_124" vType="car" speedFactor="0.90" vaporized=""/>
    <tripinfo id="SN_81" depart="81.00" departLane="3i_0" departPos="4.10" departSpeed="0.00" departDelay="0.00" arrival="243.00" arrivalLane="1o_0" arrivalPos="492.80" arrivalSpeed="10.67" duration="162.00" routeLength="995.70" waitingTime="57.00" waitingCount="4" stopTime="0.00" timeLoss="92.62" rerouteNo="0" devices="tripinfo_SN_81" vType="car" speedFactor="1.02" vaporized=""/>
    <tripinfo id="NS_147" depart="147.00" departLane="2i_0" departPos="4.10" departSpeed="0.00" departDelay="0.00" arrival="243.00" arrivalLane="4o_0" arrivalPos="492.80" arrivalSpeed="8.61" duration="96.00" routeLength="990.53" waitingTime="0.00" waitingCount="0" stopTime="0.00" timeLoss="13.54" rerouteNo="0" devices="tripinfo_NS_147" vType="car" speedFactor="0.85" vaporized=""/>
    <tripinfo id="EW_146" depart="146.00" departLane="4i_0" departPos="4.10" departSpeed="0.00" departDelay="0.00" arrival="248.00" arrivalLane="3o_0" arrivalPos="492.80" arrivalSpeed="9.34" duration="102.00" routeLength="995.90" waitingTime="1.00" waitingCount="1" stopTime="0.00" timeLoss="18.63" rerouteNo="0" devices="tripinfo_EW_146" vType="car" speedFactor="0.85" vaporized=""/>
    <tripinfo id="NS_159" depart="159.00" departLane="2i_0" departPos="4.10" departSpeed="0.00" departDelay="0.00" arrival="248.00" arrivalLane="1o_0" arrivalPos="492.80" arrivalSpeed="10.90" duration="89.00" routeLength="995.90" waitingTime="3.00" waitingCount="1" stopTime="0.00" timeLoss="17.42" rerouteNo="0" devices="tripinfo_NS_159" vType="car" speedFactor="1.00" vaporized=""/>
    <tripinfo id="NS_163" depart="163.00" departLane="2i_0" departPos="10.10" departSpeed="0.00" departDelay="0.00" arrival="251.00" arrivalLane="1o_0" arrivalPos="492.80" arrivalSpeed="10.38" duration="88.00" routeLength="989.90" waitingTime="0.00" waitingCount="0" stopTime="0.00" timeLoss="13.64" rerouteNo="0" devices="tripinfo_NS_163" vType="truck" speedFactor="0.95" vaporized=""/>
    <tripinfo id="NS_166" depart="167.00" departLane="2i_0" departPos="4.10" departSpeed="0.00" departDelay="1.00" arrival="251.00" arrivalLane="4o_0" arrivalPos="492.80" arrivalSpeed="10.89" duration="84.00" routeLength="990.53" waitingTime="0.00" waitingCount="0" stopTime="0.00" timeLoss="14.86" rerouteNo="0" devices="tripinfo_NS_166" vType="car" speedFactor="1.02" vaporized=""/>
    <tripinfo id="WE_166" depart="166.00" departLane="1i_0" departPos="4.10" departSpeed="0.00" departDelay="0.00" arrival="253.00" arrivalLane="4o_0" arrivalPos="492.80" arrivalSpeed="12.58" duration="87.00" routeLength="995.70" waitingTime="7.00" waitingCount="1" stopTime="0.00" timeLoss="24.33" rerouteNo="0" devices="tripinfo_WE_166" vType="car" speedFactor="1.14" vaporized=""/>
    <tripinfo id="NS_181" depart="181.00" departLane="2i_0" departPos="4.10" departSpeed="0.00" departDelay="0.00" arrival="253.00" arrivalLane="1o_0" arrivalPos="492.80" arrivalSpeed="12.17" duration="72.00" routeLength="995.90" waitingTime="0.00" waitingCount="0" stopTime="0.00" timeLoss="8.86" rerouteNo="0" devices="tripinfo_NS_181" vType="car" speedFactor="1.12" vaporized=""/>
    <tripinfo id="WE_186" depart="186.00" departLane="1i_0" departPos="10.10" departSpeed="0.00" departDelay="0.00" arrival="269.00" arrivalLane="2o_0" arrivalPos="492.80" arrivalSpeed="10.61" duration="83.00" routeLength="989.90" waitingTime="0.00" waitingCount="0" stopTime="0.00" timeLoss="12.66" rerouteNo="0" devices="tripinfo_WE_186" vType="truck" speedFactor="1.01" vaporized=""/>
    <tripinfo id="WE_192" depart="192.00" departLane="1i_0" departPos="4.10" departSpeed="0.00" departDelay="0.00" arrival="274.00" arrivalLane="3o_0" arrivalPos="492.80" arrivalSpeed="10.44" duration="82.00" routeLength="990.53" waitingTime="0.00" waitingCount="0" stopTime="0.00" timeLoss="10.09" rerouteNo="0" devices="tripinfo_WE_192" vType="car" speedFactor="0.99" vaporized=""/>
    <tripinfo id="SN_84" depart="84.00" departLane="3i_0" departPos="4.10" departSpeed="0.00" departDelay="0.00" arrival="289.00" arrivalLane="4o_0" arrivalPos="492.80" arrivalSpeed="10.08" duration="205.00" routeLength="995.90" waitingTime="90.00" waitingCount="3" stopTime="0.00" timeLoss="132.36" rerouteNo="0" devices="tripinfo_SN_84" vType="car" speedFactor="0.97" vaporized=""/>
    <tripinfo id="SN_85" depart="87.00" departLane="3i_0" departPos="4.10" departSpeed="0.00" departDelay="2.00" arrival="290.00" arrivalLane="1o_0" arrivalPos="492.80" arrivalSpeed="11.92" duration="203.00" routeLength="995.70" waitingTime="91.00" waitingCount="3" stopTime="0.00" timeLoss="139.02" rerouteNo="0" devices="tripinfo_SN_85" vType="car" speedFactor="1.10" vaporized=""/>
    <tripinfo id="NS_208" depart="208.00" departLane="2i_0" departPos="4.10" departSpeed="0.00" departDelay="0.00" arrival="295.00" arrivalLane="4o_0" arrivalPos="492.80" arrivalSpeed="9.01" duration="87.00" routeLength="990.53" waitingTime="0.00" waitingCount="0" stopTime="0.00" timeLoss="8.93" rerouteNo="0" devices="tripinfo_NS_208" vType="car" speedFactor="0.91" vaporized=""/>
    <tripinfo id="NS_212" depart="212.00" departLane="2i_0" departPos="4.10" departSpeed="0.00" departDelay="0.00" arrival="303.00" arrivalLane="3o_0" arrivalPos="492.80" arrivalSpeed="9.82" duration="91.00" routeLength="995.70" waitingTime="0.00" waitingCount="0" stopTime="0.00" timeLoss="13.29" rerouteNo="0" devices="tripinfo_NS_212" vType="car" speedFactor="0.91" vaporized=""/>
    <tripinfo id="NS_221" depart="221.00" departLane="2i_0" departPos="4.10" departSpeed="0.00" departDelay="0.00" arrival="305.00" arrivalLane="3o_0" arrivalPos="492.80" arrivalSpeed="10.16" duration="84.00" routeLength="995.70" waitingTime="0.00" waitingCount="0" stopTime="0.00" timeLoss="14.07" rerouteNo="0" devices="tripinfo_NS_221" vType="car" speedFactor="1.02" vaporized=""/>
    <tripinfo id="NS_225" depart="225.00" departLane="2i_0" departPos="4.10" departSpeed="0.00" departDelay="0.00" arrival="306.00" arrivalLane="1o_0" arrivalPos="492.80" arrivalSpeed="9.84" duration="81.00" routeLength="995.90" waitingTime="0.00" waitingCount="0" stopTime="0.00" timeLoss="8.36" rerouteNo="0" devices="tripinfo_NS_225" vType="car" speedFactor="0.97" vaporized=""/>
    <tripinfo id="WE_219" depart="219.00" departLane="1i_0" departPos="4.10" departSpeed="0.00" departDelay="0.00" arrival="307.00" arrivalLane="4o_0" arrivalPos="492.80" arrivalSpeed="10.93" duration="88.00" routeLength="995.70" waitingTime="5.00" waitingCount="1" stopTime="0.00" timeLoss="19.91" rerouteNo="0" devices="tripinfo_WE_219" vType="car" speedFactor="1.04" vaporized=""/>
    <tripinfo id="WE_228" depart="229.00" departLane="1i_0" departPos="4.10" departSpeed="0.00" departDelay="1.00" arrival="315.00" arrivalLane="4o_0" arrivalPos="492.80" arrivalSpeed="9.80" duration="86.00" routeLength="995.70" waitingTime="0.00" waitingCount="0" stopTime="0.00" timeLoss="10.11" rerouteNo="0" devices="tripinfo_WE_228" vType="car" speedFactor="0.94" vaporized=""/>
    <tripinfo id="NS_248" depart="248.00" departLane="2i_0" departPos="4.10" departSpeed="0.00" departDelay="0.00" arrival="327.00" arrivalLane="1o_0" arrivalPos="492.80" arrivalSpeed="11.15" duration="79.00" routeLength="995.90" waitingTime="0.00" waitingCount="0" stopTime="0.00" timeLoss="8.11" rerouteNo="0" devices="tripinfo_NS_248" vType="car" speedFactor="1.01" vaporized=""/>
    <tripinfo id="WE_257" depart="257.00" departLane="1i_0" departPos="4.10" departSpeed="0.00" departDelay="0.00" arrival="330.00" arrivalLane="2o_0" arrivalPos="492.80" arrivalSpeed="10.91" duration="73.00" routeLength="995.90" waitingTime="0.00" waitingCount="0" stopTime="0.00" timeLoss="7.93" rerouteNo="0" devices="tripinfo_WE_257" vType="car" speedFactor="1.09" vaporized=""/>
    <tripinfo id="NS_257" depart="257.00" departLane="2i_0" departPos="4.10" departSpeed="0.00" departDelay="0.00" arrival="335.00" arrivalLane="3o_0" arrivalPos="492.80" arrivalSpeed="10.95" duration="78.00" routeLength="995.70" waitingTime="0.00" waitingCount="0" stopTime="0.00" timeLoss="9.59" rerouteNo="0" devices="tripinfo_NS_257" vType="car" speedFactor="1.03" vaporized=""/>
    <tripinfo id="NS_263" depart="263.00" departLane="2i_0" departPos="4.10" departSpeed="0.00" departDelay="0.00" arrival="337.00" arrivalLane="3o_0" arrivalPos="492.80" arrivalSpeed="12.25" duration="74.00" routeLength="995.70" waitingTime="0.00" waitingCount="0" stopTime="0.00" timeLoss="12.05" rerouteNo="0" devices="tripinfo_NS_263" vType="car" speedFactor="1.15" vaporized=""/>
    <tripinfo id="WE_266" depart="266.00" departLane="1i_0" departPos="4.10" departSpeed="0.00" departDelay="0.00" arrival="347.00" arrivalLane="2o_0" arrivalPos="492.80" arrivalSpeed="10.16" duration="81.00" routeLength="995.90" waitingTime="0.00" waitingCount="0" stopTime="0.00" timeLoss="8.41" rerouteNo="0" devices="tripinfo_WE_266" vType="car" speedFactor="0.98" vaporized=""/>
    <tripinfo id="WE_272" depart="272.00" departLane="1i_0" departPos="4.10" departSpeed="0.00" departDelay="0.00" arrival="351.00" arrivalLane="3o_0" arrivalPos="492.80" arrivalSpeed="10.51" duration="79.00" routeLength="990.53" waitingTime="0.00" waitingCount="0" stopTime="0.00" timeLoss="8.08" rerouteNo="0" devices="tripinfo_WE_272" vType="car" speedFactor="1.00" vaporized=""/>
    <tripinfo id="WE_275" depart="275.00" departLane="1i_0" departPos="4.10" departSpeed="0.00" departDelay="0.00" arrival="351.00" arrivalLane="2o_0" arrivalPos="492.80" arrivalSpeed="10.93" duration="76.00" routeLength="995.90" waitingTime="0.00" waitingCount="0" stopTime="0.00" timeLoss="8.11" rerouteNo="0" devices="tripinfo_WE_275" vType="car" speedFactor="1.04" vaporized=""/>
    <tripinfo id="WE_276" depart="278.00" departLane="1i_0" departPos="4.10" departSpeed="0.00" departDelay="2.00" arrival="355.00" arrivalLane="2o_0" arrivalPos="492.80" arrivalSpeed="10.89" duration="77.00" routeLength="995.90" waitingTime="0.00" waitingCount="0" stopTime="0.00" timeLoss="7.80" rerouteNo="0" devices="tripinfo_WE_276" vType="car" speedFactor="1.02" vaporized=""/>
    <tripinfo id="EW_222" depart="222.00" departLane="4i_0" departPos="4.10" departSpeed="0.00" departDelay="0.00" arrival="363.00" arrivalLane="2o_0" arrivalPos="492.80" arrivalSpeed="10.18" duration="141.00" routeLength="995.70" waitingTime="59.00" waitingCount="1" stopTime="0.00" timeLoss="71.78" rerouteNo="0" devices="tripinfo_EW_222" vType="car" speedFactor="1.02" vaporized=""/>
    <tripinfo id="WE_284" depart="284.00" departLane="1i_0" departPos="4.10" departSpeed="0.00" departDelay="0.00" arrival="378.00" arrivalLane="3o_0" arrivalPos="492.80" arrivalSpeed="8.61" duration="94.00" routeLength="990.53" waitingTime="0.00" waitingCount="0" stopTime="0.00" timeLoss="9.13" rerouteNo="0" devices="tripinfo_WE_284" vType="car" speedFactor="0.83" vaporized=""/>
    <tripinfo id="WE_293" depart="293.00" departLane="1i_0" departPos="4.10" departSpeed="0.00" departDelay="0.00" arrival="380.00" arrivalLane="3o_0" arrivalPos="492.80" arrivalSpeed="9.03" duration="87.00" routeLength="990.53" waitingTime="0.00" waitingCount="0" stopTime="0.00" timeLoss="8.87" rerouteNo="0" devices="tripinfo_WE_293" vType="car" speedFactor="0.91" vaporized=""/>
    <tripinfo id="NS_286" depart="286.00" departLane="2i_0" departPos="4.10" departSpeed="0.00" departDelay="0.00" arrival="381.00" arrivalLane="3o_0" arrivalPos="492.80" arrivalSpeed="11.70" duration="95.00" routeLength="995.70" waitingTime="10.00" waitingCount="1" stopTime="0.00" timeLoss="30.17" rerouteNo="0" devices="tripinfo_NS_286" vType="car" speedFactor="1.09" vaporized=""/>
    <tripinfo id="WE_301" depart="301.00" departLane="1i_0" departPos="4.10" departSpeed="0.00" departDelay="0.00" arrival="384.00" arrivalLane="3o_0" arrivalPos="492.80" arrivalSpeed="9.87" duration="83.00" routeLength="990.53" waitingTime="0.00" waitingCount="0" stopTime="0.00" timeLoss="8.89" rerouteNo="0" devices="tripinfo_WE_301" vType="car" speedFactor="0.96" vaporized=""/>
    <tripinfo id="EW_241" depart="241.00" departLane="4i_0" departPos="4.10" departSpeed="0.00" departDelay="0.00" arrival="386.00" arrivalLane="2o_0" arrivalPos="492.80" arrivalSpeed="10.10" duration="145.00" routeLength="995.70" waitingTime="50.00" waitingCount="3" stopTime="0.00" timeLoss="70.26" rerouteNo="0" devices="tripinfo_EW_241" vType="car" speedFactor="0.96" vaporized=""/>