<?xml version="1.0" encoding="UTF-8"?>

<!-- generated on 2024-05-05 16:39:09 by Eclipse SUMO sumo Version 1.19.0
<configuration xmlns:xsi="http://www.w3.org/2001/XMLSchema-instance" xsi:noNamespaceSchemaLocation="http://sumo.dlr.de/xsd/sumoConfiguration.xsd">

    <input>
        <net-file value="twoone.net.xml"/>
        <route-files value="route_gen.rou.xml"/>
    </input>

    <output>
        <tripinfo-output value="tripinfo_epi183.xml"/>
    </output>

    <report>
        <no-warnings value="true"/>
    </report>

    <traci_server>
        <remote-port value="49229"/>
    </traci_server>

</configuration>
-->

<tripinfos xmlns:xsi="http://www.w3.org/2001/XMLSchema-instance" xsi:noNamespaceSchemaLocation="http://sumo.dlr.de/xsd/tripinfo_file.xsd">
    <tripinfo id="EW_2" depart="2.00" departLane="4i_0" departPos="4.10" departSpeed="0.00" departDelay="0.00" arrival="80.00" arrivalLane="3o_0" arrivalPos="492.80" arrivalSpeed="11.47" duration="78.00" routeLength="995.90" waitingTime="1.00" waitingCount="1" stopTime="0.00" timeLoss="11.11" rerouteNo="0" devices="tripinfo_EW_2" vType="car" speedFactor="1.06" vaporized=""/>
    <tripinfo id="EW_6" depart="6.00" departLane="4i_0" departPos="4.10" departSpeed="0.00" departDelay="0.00" arrival="90.00" arrivalLane="1o_0" arrivalPos="492.80" arrivalSpeed="9.65" duration="84.00" routeLength="990.53" waitingTime="0.00" waitingCount="0" stopTime="0.00" timeLoss="8.28" rerouteNo="0" devices="tripinfo_EW_6" vType="car" speedFactor="0.94" vaporized=""/>
    <tripinfo id="EW_8" depart="8.00" departLane="4i_0" departPos="4.10" departSpeed="0.00" departDelay="0.00" arrival="90.00" arrivalLane="2o_0" arrivalPos="492.80" arrivalSpeed="11.74" duration="82.00" routeLength="995.70" waitingTime="0.00" waitingCount="0" stopTime="0.00" timeLoss="16.01" rerouteNo="0" devices="tripinfo_EW_8" vType="car" speedFactor="1.08" vaporized=""/>
    <tripinfo id="WE_8" depart="8.00" departLane="1i_0" departPos="10.10" departSpeed="0.00" departDelay="0.00" arrival="95.00" arrivalLane="2o_0" arrivalPos="492.80" arrivalSpeed="11.14" duration="87.00" routeLength="989.90" waitingTime="0.00" waitingCount="0" stopTime="0.00" timeLoss="17.14" rerouteNo="0" devices="tripinfo_WE_8" vType="truck" speedFactor="1.01" vaporized=""/>
    <tripinfo id="WE_9" depart="12.00" departLane="1i_0" departPos="4.10" departSpeed="0.00" departDelay="3.00" arrival="96.00" arrivalLane="3o_0" arrivalPos="492.80" arrivalSpeed="11.32" duration="84.00" routeLength="990.53" waitingTime="0.00" waitingCount="0" stopTime="0.00" timeLoss="15.83" rerouteNo="0" devices="tripinfo_WE_9" vType="car" speedFactor="1.03" vaporized=""/>
    <tripinfo id="NS_14" depart="14.00" departLane="2i_0" departPos="4.10" departSpeed="0.00" departDelay="0.00" arrival="102.00" arrivalLane="4o_0" arrivalPos="492.80" arrivalSpeed="9.03" duration="88.00" routeLength="990.53" waitingTime="0.00" waitingCount="0" stopTime="0.00" timeLoss="8.40" rerouteNo="0" devices="tripinfo_NS_14" vType="car" speedFactor="0.89" vaporized=""/>
    <tripinfo id="NS_21" depart="21.00" departLane="2i_0" departPos="4.10" departSpeed="0.00" departDelay="0.00" arrival="104.00" arrivalLane="4o_0" arrivalPos="492.80" arrivalSpeed="11.34" duration="83.00" routeLength="990.53" waitingTime="0.00" waitingCount="0" stopTime="0.00" timeLoss="17.68" rerouteNo="0" devices="tripinfo_NS_21" vType="car" speedFactor="1.09" vaporized=""/>
    <tripinfo id="WE_11" depart="15.00" departLane="1i_0" departPos="4.10" departSpeed="0.00" departDelay="4.00" arrival="105.00" arrivalLane="4o_0" arrivalPos="492.80" arrivalSpeed="10.91" duration="90.00" routeLength="995.70" waitingTime="0.00" waitingCount="0" stopTime="0.00" timeLoss="22.49" rerouteNo="0" devices="tripinfo_WE_11" vType="car" speedFactor="1.05" vaporized=""/>
    <tripinfo id="WE_24" depart="24.00" departLane="1i_0" departPos="4.10" departSpeed="0.00" departDelay="0.00" arrival="107.00" arrivalLane="4o_0" arrivalPos="492.80" arrivalSpeed="11.08" duration="83.00" routeLength="995.70" waitingTime="0.00" waitingCount="0" stopTime="0.00" timeLoss="13.98" rerouteNo="0" devices="tripinfo_WE_24" vType="car" speedFactor="1.03" vaporized=""/>
    <tripinfo id="EW_20" depart="20.00" departLane="4i_0" departPos="4.10" departSpeed="0.00" departDelay="0.00" arrival="112.00" arrivalLane="3o_0" arrivalPos="492.80" arrivalSpeed="9.35" duration="92.00" routeLength="995.90" waitingTime="4.00" waitingCount="1" stopTime="0.00" timeLoss="16.75" rerouteNo="0" devices="tripinfo_EW_20" vType="car" speedFactor="0.94" vaporized=""/>
    <tripinfo id="NS_31" depart="31.00" departLane="2i_0" departPos="4.10" departSpeed="0.00" departDelay="0.00" arrival="112.00" arrivalLane="1o_0" arrivalPos="492.80" arrivalSpeed="9.94" duration="81.00" routeLength="995.90" waitingTime="0.00" waitingCount="0" stopTime="0.00" timeLoss="9.33" rerouteNo="0" devices="tripinfo_NS_31" vType="car" speedFactor="0.99" vaporized=""/>
    <tripinfo id="WE_25" depart="27.00" departLane="1i_0" departPos="4.10" departSpeed="0.00" departDelay="2.00" arrival="114.00" arrivalLane="4o_0" arrivalPos="492.80" arrivalSpeed="10.87" duration="87.00" routeLength="995.70" waitingTime="3.00" waitingCount="1" stopTime="0.00" timeLoss="18.74" rerouteNo="0" devices="tripinfo_WE_25" vType="car" speedFactor="1.05" vaporized=""/>
    <tripinfo id="SN_9" depart="9.00" departLane="3i_0" departPos="4.10" departSpeed="0.00" departDelay="0.00" arrival="118.00" arrivalLane="2o_0" arrivalPos="492.80" arrivalSpeed="8.48" duration="109.00" routeLength="990.53" waitingTime="13.00" waitingCount="1" stopTime="0.00" timeLoss="24.48" rerouteNo="0" devices="tripinfo_SN_9" vType="car" speedFactor="0.83" vaporized=""/>
    <tripinfo id="SN_20" depart="20.00" departLane="3i_0" departPos="4.10" departSpeed="0.00" departDelay="0.00" arrival="120.00" arrivalLane="2o_0" arrivalPos="492.80" arrivalSpeed="8.22" duration="100.00" routeLength="990.53" waitingTime="2.00" waitingCount="1" stopTime="0.00" timeLoss="17.86" rerouteNo="0" devices="tripinfo_SN_20" vType="car" speedFactor="0.86" vaporized=""/>
    <tripinfo id="SN_29" depart="29.00" departLane="3i_0" departPos="4.10" departSpeed="0.00" departDelay="0.00" arrival="122.00" arrivalLane="2o_0" arrivalPos="492.80" arrivalSpeed="12.15" duration="93.00" routeLength="990.53" waitingTime="0.00" waitingCount="0" stopTime="0.00" timeLoss="29.75" rerouteNo="0" devices="tripinfo_SN_29" vType="car" speedFactor="1.12" vaporized=""/>
    <tripinfo id="NS_38" depart="38.00" departLane="2i_0" departPos="4.10" departSpeed="0.00" departDelay="0.00" arrival="127.00" arrivalLane="1o_0" arrivalPos="492.80" arrivalSpeed="9.90" duration="89.00" routeLength="995.90" waitingTime="1.00" waitingCount="1" stopTime="0.00" timeLoss="12.58" rerouteNo="0" devices="tripinfo_NS_38" vType="car" speedFactor="0.93" vaporized=""/>
    <tripinfo id="WE_40" depart="40.00" departLane="1i_0" departPos="4.10" departSpeed="0.00" departDelay="0.00" arrival="129.00" arrivalLane="3o_0" arrivalPos="492.80" arrivalSpeed="8.54" duration="89.00" routeLength="990.53" waitingTime="0.00" waitingCount="0" stopTime="0.00" timeLoss="8.72" rerouteNo="0" devices="tripinfo_WE_40" vType="car" speedFactor="0.88" vaporized=""/>
    <tripinfo id="SN_43" depart="43.00" departLane="3i_0" departPos="4.10" departSpeed="0.00" departDelay="0.00" arrival="129.00" arrivalLane="4o_0" arrivalPos="492.80" arrivalSpeed="10.20" duration="86.00" routeLength="995.90" waitingTime="0.00" waitingCount="0" stopTime="0.00" timeLoss="10.87" rerouteNo="0" devices="tripinfo_SN_43" vType="car" speedFactor="0.94" vaporized=""/>
    <tripinfo id="NS_56" depart="56.00" departLane="2i_0" departPos="4.10" departSpeed="0.00" departDelay="0.00" arrival="131.00" arrivalLane="4o_0" arrivalPos="492.80" arrivalSpeed="11.79" duration="75.00" routeLength="990.53" waitingTime="0.00" waitingCount="0" stopTime="0.00" timeLoss="13.89" rerouteNo="0" devices="tripinfo_NS_56" vType="car" speedFactor="1.16" vaporized=""/>
    <tripinfo id="WE_57" depart="57.00" departLane="1i_0" departPos="4.10" departSpeed="0.00" departDelay="0.00" arrival="135.00" arrivalLane="3o_0" arrivalPos="492.80" arrivalSpeed="10.05" duration="78.00" routeLength="990.53" waitingTime="0.00" waitingCount="0" stopTime="0.00" timeLoss="8.55" rerouteNo="0" devices="tripinfo_WE_57" vType="car" speedFactor="1.02" vaporized=""/>
    <tripinfo id="NS_57" depart="59.00" departLane="2i_0" departPos="4.10" departSpeed="0.00" departDelay="2.00" arrival="136.00" arrivalLane="4o_0" arrivalPos="492.80" arrivalSpeed="10.42" duration="77.00" routeLength="990.53" waitingTime="0.00" waitingCount="0" stopTime="0.00" timeLoss="6.96" rerouteNo="0" devices="tripinfo_NS_57" vType="car" speedFactor="1.01" vaporized=""/>
    <tripinfo id="EW_50" depart="50.00" departLane="4i_0" departPos="4.10" departSpeed="0.00" departDelay="0.00" arrival="138.00" arrivalLane="2o_0" arrivalPos="492.80" arrivalSpeed="9.33" duration="88.00" routeLength="995.70" waitingTime="0.00" waitingCount="0" stopTime="0.00" timeLoss="12.05" rerouteNo="0" devices="tripinfo_EW_50" vType="car" speedFactor="0.94" vaporized=""/>
    <tripinfo id="SN_60" depart="60.00" departLane="3i_0" departPos="4.10" departSpeed="0.00" departDelay="0.00" arrival="144.00" arrivalLane="2o_0" arrivalPos="492.80" arrivalSpeed="9.83" duration="84.00" routeLength="990.53" waitingTime="0.00" waitingCount="0" stopTime="0.00" timeLoss="11.25" rerouteNo="0" devices="tripinfo_SN_60" vType="car" speedFactor="0.97" vaporized=""/>
    <tripinfo id="NS_72" depart="72.00" departLane="2i_0" departPos="4.10" departSpeed="0.00" departDelay="0.00" arrival="145.00" arrivalLane="3o_0" arrivalPos="492.80" arrivalSpeed="11.34" duration="73.00" routeLength="995.70" waitingTime="0.00" waitingCount="0" stopTime="0.00" timeLoss="10.37" rerouteNo="0" devices="tripinfo_NS_72" vType="car" speedFactor="1.13" vaporized=""/>
    <tripinfo id="WE_86" depart="86.00" departLane="1i_0" departPos="4.10" departSpeed="0.00" departDelay="0.00" arrival="154.00" arrivalLane="3o_0" arrivalPos="492.80" arrivalSpeed="12.81" duration="68.00" routeLength="990.53" waitingTime="0.00" waitingCount="0" stopTime="0.00" timeLoss="8.11" rerouteNo="0" devices="tripinfo_WE_86" vType="car" speedFactor="1.18" vaporized=""/>
    <tripinfo id="WE_90" depart="90.00" departLane="1i_0" departPos="4.10" departSpeed="0.00" departDelay="0.00" arrival="158.00" arrivalLane="3o_0" arrivalPos="492.80" arrivalSpeed="11.81" duration="68.00" routeLength="990.53" waitingTime="0.00" waitingCount="0" stopTime="0.00" timeLoss="7.94" rerouteNo="0" devices="tripinfo_WE_90" vType="car" speedFactor="1.17" vaporized=""/>
    <tripinfo id="WE_65" depart="65.00" departLane="1i_0" departPos="4.10" departSpeed="0.00" departDelay="0.00" arrival="161.00" arrivalLane="4o_0" arrivalPos="492.80" arrivalSpeed="8.93" duration="96.00" routeLength="995.70" waitingTime="1.00" waitingCount="1" stopTime="0.00" timeLoss="14.37" rerouteNo="0" devices="tripinfo_WE_65" vType="car" speedFactor="0.87" vaporized=""/>
    <tripinfo id="WE_104" depart="104.00" departLane="1i_0" departPos="4.10" departSpeed="0.00" departDelay="0.00" arrival="176.00" arrivalLane="3o_0" arrivalPos="492.80" arrivalSpeed="11.32" duration="72.00" routeLength="990.53" waitingTime="0.00" waitingCount="0" stopTime="0.00" timeLoss="8.05" rerouteNo="0" devices="tripinfo_WE_104" vType="car" speedFactor="1.10" vaporized=""/>
    <tripinfo id="WE_98" depart="98.00" departLane="1i_0" departPos="4.10" departSpeed="0.00" departDelay="0.00" arrival="179.00" arrivalLane="2o_0" arrivalPos="492.80" arrivalSpeed="9.80" duration="81.00" routeLength="995.90" waitingTime="0.00" waitingCount="0" stopTime="0.00" timeLoss="7.90" rerouteNo="0" devices="tripinfo_WE_98" vType="car" speedFactor="0.97" vaporized=""/>
    <tripinfo id="WE_107" depart="107.00" departLane="1i_0" departPos="4.10" departSpeed="0.00" departDelay="0.00" arrival="194.00" arrivalLane="2o_0" arrivalPos="492.80" arrivalSpeed="8.77" duration="87.00" routeLength="995.90" waitingTime="0.00" waitingCount="0" stopTime="0.00" timeLoss="7.87" rerouteNo="0" devices="tripinfo_WE_107" vType="car" speedFactor="0.90" vaporized=""/>
    <tripinfo id="NS_118" depart="118.00" departLane="2i_0" departPos="4.10" departSpeed="0.00" departDelay="0.00" arrival="194.00" arrivalLane="1o_0" arrivalPos="492.80" arrivalSpeed="10.56" duration="76.00" routeLength="995.90" waitingTime="0.00" waitingCount="0" stopTime="0.00" timeLoss="7.50" rerouteNo="0" devices="tripinfo_NS_118" vType="car" speedFactor="1.04" vaporized=""/>
    <tripinfo id="WE_117" depart="117.00" departLane="1i_0" departPos="4.10" departSpeed="0.00" departDelay="0.00" arrival="195.00" arrivalLane="2o_0" arrivalPos="492.80" arrivalSpeed="12.03" duration="78.00" routeLength="995.90" waitingTime="0.00" waitingCount="0" stopTime="0.00" timeLoss="13.07" rerouteNo="0" devices="tripinfo_WE_117" vType="car" speedFactor="1.09" vaporized=""/>
    <tripinfo id="WE_120" depart="122.00" departLane="1i_0" departPos="4.10" departSpeed="0.00" departDelay="2.00" arrival="198.00" arrivalLane="3o_0" arrivalPos="492.80" arrivalSpeed="11.85" duration="76.00" routeLength="990.53" waitingTime="0.00" waitingCount="0" stopTime="0.00" timeLoss="10.35" rerouteNo="0" devices="tripinfo_WE_120" vType="car" speedFactor="1.09" vaporized=""/>
    <tripinfo id="WE_118" depart="119.00" departLane="1i_0" departPos="4.10" departSpeed="0.00" departDelay="1.00" arrival="199.00" arrivalLane="4o_0" arrivalPos="492.80" arrivalSpeed="11.02" duration="80.00" routeLength="995.70" waitingTime="0.00" waitingCount="0" stopTime="0.00" timeLoss="11.10" rerouteNo="0" devices="tripinfo_WE_118" vType="car" speedFactor="1.04" vaporized=""/>
    <tripinfo id="NS_124" depart="124.00" departLane="2i_0" departPos="10.10" departSpeed="0.00" departDelay="0.00" arrival="210.00" arrivalLane="3o_0" arrivalPos="492.80" arrivalSpeed="10.66" duration="86.00" routeLength="989.70" waitingTime="0.00" waitingCount="0" stopTime="0.00" timeLoss="15.06" rerouteNo="0" devices="tripinfo_NS_124" vType="truck" speedFactor="1.00" vaporized=""/>
    <tripinfo id="EW_112" depart="114.00" departLane="4i_0" departPos="4.10" departSpeed="0.00" departDelay="2.00" arrival="218.00" arrivalLane="2o_0" arrivalPos="492.80" arrivalSpeed="11.10" duration="104.00" routeLength="995.70" waitingTime="22.00" waitingCount="1" stopTime="0.00" timeLoss="35.57" rerouteNo="0" devices="tripinfo_EW_112" vType="car" speedFactor="1.03" vaporized=""/>
    <tripinfo id="NS_127" depart="128.00" departLane="2i_0" departPos="4.10" departSpeed="0.00" departDelay="1.00" arrival="219.00" arrivalLane="4o_0" arrivalPos="492.80" arrivalSpeed="9.29" duration="91.00" routeLength="990.53" waitingTime="0.00" waitingCount="0" stopTime="0.00" timeLoss="12.36" rerouteNo="0" devices="tripinfo_NS_127" vType="car" speedFactor="0.90" vaporized=""/>
    <tripinfo id="NS_134" depart="134.00" departLane="2i_0" departPos="4.10" departSpeed="0.00" departDelay="0.00" arrival="225.00" arrivalLane="1o_0" arrivalPos="492.80" arrivalSpeed="8.58" duration="91.00" routeLength="995.90" waitingTime="0.00" waitingCount="0" stopTime="0.00" timeLoss="8.13" rerouteNo="0" devices="tripinfo_NS_134" vType="car" speedFactor="0.85" vaporized=""/>
    <tripinfo id="SN_62" depart="63.00" departLane="3i_0" departPos="4.10" departSpeed="0.00" departDelay="1.00" arrival="227.00" arrivalLane="1o_0" arrivalPos="492.80" arrivalSpeed="9.38" duration="164.00" routeLength="995.70" waitingTime="71.00" waitingCount="1" stopTime="0.00" timeLoss="84.37" rerouteNo="0" devices="tripinfo_SN_62" vType="car" speedFactor="0.89" vaporized=""/>
    <tripinfo id="NS_136" depart="138.00" departLane="2i_0" departPos="4.10" departSpeed="0.00" departDelay="2.00" arrival="229.00" arrivalLane="1o_0" arrivalPos="492.80" arrivalSpeed="12.25" duration="91.00" routeLength="995.90" waitingTime="0.00" waitingCount="0" stopTime="0.00" timeLoss="29.90" rerouteNo="0" devices="tripinfo_NS_136" vType="car" speedFactor="1.17" vaporized=""/>
    <tripinfo id="NS_147" depart="147.00" departLane="2i_0" departPos="4.10" departSpeed="0.00" departDelay="0.00" arrival="231.00" arrivalLane="1o_0" arrivalPos="492.80" arrivalSpeed="10.06" duration="84.00" routeLength="995.90" waitingTime="0.00" waitingCount="0" stopTime="0.00" timeLoss="12.87" rerouteNo="0" devices="tripinfo_NS_147" vType="car" speedFactor="1.00" vaporized=""/>
    <tripinfo id="NS_158" depart="158.00" departLane="2i_0" departPos="4.10" departSpeed="0.00" departDelay="0.00" arrival="235.00" arrivalLane="1o_0" arrivalPos="492.80" arrivalSpeed="10.27" duration="77.00" routeLength="995.90" waitingTime="0.00" waitingCount="0" stopTime="0.00" timeLoss="7.26" rerouteNo="0" devices="tripinfo_NS_158" vType="car" speedFactor="1.02" vaporized=""/>
    <tripinfo id="WE_134" depart="134.00" departLane="1i_0" departPos="4.10" departSpeed="0.00" departDelay="0.00" arrival="239.00" arrivalLane="4o_0" arrivalPos="492.80" arrivalSpeed="8.20" duration="105.00" routeLength="995.70" waitingTime="8.00" waitingCount="2" stopTime="0.00" timeLoss="21.49" rerouteNo="0" devices="tripinfo_WE_134" vType="car" speedFactor="0.85" vaporized=""/>
    <tripinfo id="NS_162" depart="162.00" departLane="2i_0" departPos="4.10" departSpeed="0.00" departDelay="0.00" arrival="243.00" arrivalLane="1o_0" arrivalPos="492.80" arrivalSpeed="9.57" duration="81.00" routeLength="995.90" waitingTime="0.00" waitingCount="0" stopTime="0.00" timeLoss="8.02" rerouteNo="0" devices="tripinfo_NS_162" vType="car" speedFactor="0.97" vaporized=""/>
    <tripinfo id="WE_174" depart="174.00" departLane="1i_0" departPos="4.10" departSpeed="0.00" departDelay="0.00" arrival="252.00" arrivalLane="2o_0" arrivalPos="492.80" arrivalSpeed="11.15" duration="78.00" routeLength="995.90" waitingTime="0.00" waitingCount="0" stopTime="0.00" timeLoss="7.82" rerouteNo="0" devices="tripinfo_WE_174" vType="car" speedFactor="1.02" vaporized=""/>
    <tripinfo id="NS_172" depart="172.00" departLane="2i_0" departPos="10.10" departSpeed="0.00" departDelay="0.00" arrival="253.00" arrivalLane="1o_0" arrivalPos="492.80" arrivalSpeed="11.64" duration="81.00" routeLength="989.90" waitingTime="0.00" waitingCount="0" stopTime="0.00" timeLoss="13.48" rerouteNo="0" devices="tripinfo_NS_172" vType="truck" speedFactor="1.06" vaporized=""/>
    <tripinfo id="NS_177" depart="179.00" departLane="2i_0" departPos="4.10" departSpeed="0.00" departDelay="2.00" arrival="260.00" arrivalLane="4o_0" arrivalPos="492.80" arrivalSpeed="10.89" duration="81.00" routeLength="990.53" waitingTime="0.00" waitingCount="0" stopTime="0.00" timeLoss="9.61" rerouteNo="0" devices="tripinfo_NS_177" vType="car" speedFactor="0.99" vaporized=""/>
    <tripinfo id="NS_184" depart="184.00" departLane="2i_0" departPos="4.10" departSpeed="0.00" departDelay="0.00" arrival="270.00" arrivalLane="4o_0" arrivalPos="492.80" arrivalSpeed="10.02" duration="86.00" routeLength="990.53" waitingTime="0.00" waitingCount="0" stopTime="0.00" timeLoss="8.14" rerouteNo="0" devices="tripinfo_NS_184" vType="car" speedFactor="0.91" vaporized=""/>
    <tripinfo id="NS_199" depart="199.00" departLane="2i_0" departPos="4.10" departSpeed="0.00" departDelay="0.00" arrival="281.00" arrivalLane="4o_0" arrivalPos="492.80" arrivalSpeed="10.70" duration="82.00" routeLength="990.53" waitingTime="0.00" waitingCount="0" stopTime="0.00" timeLoss="9.09" rerouteNo="0" devices="tripinfo_NS_199" vType="car" speedFactor="0.97" vaporized=""/>
    <tripinfo id="NS_214" depart="214.00" departLane="2i_0" departPos="4.10" departSpeed="0.00" departDelay="0.00" arrival="287.00" arrivalLane="4o_0" arrivalPos="492.80" arrivalSpeed="12.07" duration="73.00" routeLength="990.53" waitingTime="0.00" waitingCount="0" stopTime="0.00" timeLoss="7.75" rerouteNo="0" devices="tripinfo_NS_214" vType="car" speedFactor="1.09" vaporized=""/>
    <tripinfo id="NS_204" depart="204.00" departLane="2i_0" departPos="4.10" departSpeed="0.00" departDelay="0.00" arrival="288.00" arrivalLane="3o_0" arrivalPos="492.80" arrivalSpeed="10.20" duration="84.00" routeLength="995.70" waitingTime="0.00" waitingCount="0" stopTime="0.00" timeLoss="10.06" rerouteNo="0" devices="tripinfo_NS_204" vType="car" speedFactor="0.96" vaporized=""/>
    <tripinfo id="NS_228" depart="228.00" departLane="2i_0" departPos="4.10" departSpeed="0.00" departDelay="0.00" arrival="306.00" arrivalLane="1o_0" arrivalPos="492.80" arrivalSpeed="11.21" duration="78.00" routeLength="995.90" waitingTime="0.00" waitingCount="0" stopTime="0.00" timeLoss="8.03" rerouteNo="0" devices="tripinfo_NS_228" vType="car" speedFactor="1.02" vaporized=""/>
    <tripinfo id="NS_235" depart="235.00" departLane="2i_0" departPos="4.10" departSpeed="0.00" departDelay="0.00" arrival="311.00" arrivalLane="4o_0" arrivalPos="492.80" arrivalSpeed="10.56" duration="76.00" routeLength="990.53" waitingTime="0.00" waitingCount="0" stopTime="0.00" timeLoss="8.37" rerouteNo="0" devices="tripinfo_NS_235" vType="car" speedFactor="1.04" vaporized=""/>
    <tripinfo id="NS_239" depart="239.00" departLane="2i_0" departPos="4.10" departSpeed="0.00" departDelay="0.00" arrival="318.00" arrivalLane="4o_0" arrivalPos="492.80" arrivalSpeed="10.79" duration="79.00" routeLength="990.53" waitingTime="0.00" waitingCount="0" stopTime="0.00" timeLoss="8.52" rerouteNo="0" devices="tripinfo_NS_239" vType="car" speedFactor="1.01" vaporized=""/>
    <tripinfo id="WE_198" depart="198.00" departLane="1i_0" departPos="4.10" departSpeed="0.00" departDelay="0.00" arrival="322.00" arrivalLane="4o_0" arrivalPos="492.80" arrivalSpeed="10.17" duration="124.00" routeLength="995.70" waitingTime="40.00" waitingCount="1" stopTime="0.00" timeLoss="54.28" rerouteNo="0" devices="tripinfo_WE_198" vType="car" speedFactor="1.02" vaporized=""/>
    <tripinfo id="EW_132" depart="132.00" departLane="4i_0" departPos="4.10" departSpeed="0.00" departDelay="0.00" arrival="327.00" arrivalLane="2o_0" arrivalPos="492.80" arrivalSpeed="8.87" duration="195.00" routeLength="995.70" waitingTime="97.00" waitingCount="2" stopTime="0.00" timeLoss="114.10" rerouteNo="0" devices="tripinfo_EW_132" vType="car" speedFactor="0.88" vaporized=""/>
    <tripinfo id="WE_205" depart="205.00" departLane="1i_0" departPos="4.10" departSpeed="0.00" departDelay="0.00" arrival="328.00" arrivalLane="4o_0" arrivalPos="492.80" arrivalSpeed="10.38" duration="123.00" routeLength="995.70" waitingTime="35.00" waitingCount="1" stopTime="0.00" timeLoss="50.58" rerouteNo="0" devices="tripinfo_WE_205" vType="car" speedFactor="0.98" vaporized=""/>
    <tripinfo id="WE_201" depart="201.00" departLane="1i_0" departPos="4.10" departSpeed="0.00" departDelay="0.00" arrival="329.00" arrivalLane="2o_0" arrivalPos="492.80" arrivalSpeed="10.05" duration="128.00" routeLength="995.90" waitingTime="36.00" waitingCount="1" stopTime="0.00" timeLoss="52.30" rerouteNo="0" devices="tripinfo_WE_201" vType="car" speedFactor="0.94" vaporized=""/>
    <tripinfo id="WE_230" depart="231.00" departLane="1i_0" departPos="10.10" departSpeed="0.00" departDelay="1.00" arrival="331.00" arrivalLane="4o_0" arrivalPos="492.80" arrivalSpeed="10.86" duration="100.00" routeLength="989.70" waitingTime="4.00" waitingCount="1" stopTime="0.00" timeLoss="27.90" rerouteNo="0" devices="tripinfo_WE_230" vType="truck" speedFactor="0.98" vaporized=""/>
    <tripinfo id="EW_137" depart="137.00" departLane="4i_0" departPos="4.10" departSpeed="0.00" departDelay="0.00" arrival="333.00" arrivalLane="3o_0" arrivalPos="492.80" arrivalSpeed="10.29" duration="196.00" routeLength="995.90" waitingTime="104.00" waitingCount="3" stopTime="0.00" timeLoss="126.55" rerouteNo="0" devices="tripinfo_EW_137" vType="car" speedFactor="1.02" vaporized=""/>
    <tripinfo id="WE_255" depart="255.00" departLane="1i_0" departPos="10.10" departSpeed="0.00" departDelay="0.00" arrival="344.00" arrivalLane="3o_0" arrivalPos="492.80" arrivalSpeed="10.13" duration="89.00" routeLength="984.53" waitingTime="0.00" waitingCount="0" stopTime="0.00" timeLoss="15.36" rerouteNo="0" devices="tripinfo_WE_255" vType="truck" speedFactor="0.96" vaporized=""/>
    <tripinfo id="SN_64" depart="66.00" departLane="3i_0" departPos="4.10" departSpeed="0.00" departDelay="2.00" arrival="345.00" arrivalLane="4o_0" arrivalPos="492.80" arrivalSpeed="8.09" duration="279.00" routeLength="995.90" waitingTime="173.00" waitingCount="4" stopTime="0.00" timeLoss="192.89" rerouteNo="0" devices="tripinfo_SN_64" vType="car" speedFactor="0.83" vaporized=""/>
    <tripinfo id="WE_273" depart="273.00" departLane="1i_0" departPos="4.10" departSpeed="0.00" departDelay="0.00" arrival="346.00" arrivalLane="2o_0" arrivalPos="492.80" arrivalSpeed="12.15" duration="73.00" routeLength="995.90" waitingTime="0.00" waitingCount="0" stopTime="0.00" timeLoss="8.45" rerouteNo="0" devices="tripinfo_WE_273" vType="car" speedFactor="1.10" vaporized=""/>
    <tripinfo id="NS_253" depart="253.00" departLane="2i_0" departPos="4.10" departSpeed="0.00" departDelay="0.00" arrival="347.00" arrivalLane="4o_0" arrivalPos="492.80" arrivalSpeed="8.47" duration="94.00" routeLength="990.53" waitingTime="0.00" waitingCount="0" stopTime="0.00" timeLoss="9.30" rerouteNo="0" devices="tripinfo_NS_253" vType="car" speedFactor="0.83" vaporized=""/>
    <tripinfo id="NS_258" depart="258.00" departLane="2i_0" departPos="4.10" departSpeed="0.00" departDelay="0.00" arrival="348.00" arrivalLane="4o_0" arrivalPos="492.80" arrivalSpeed="10.74" duration="90.00" routeLength="990.53" waitingTime="0.00" waitingCount="0" stopTime="0.00" timeLoss="23.65" rerouteNo="0" devices="tripinfo_NS_258" vType="car" speedFactor="1.06" vaporized=""/>
    <tripinfo id="WE_247" depart="247.00" departLane="1i_0" departPos="4.10" departSpeed="0.00" departDelay="0.00" arrival="351.00" arrivalLane="4o_0" arrivalPos="492.80" arrivalSpeed="9.77" duration="104.00" routeLength="995.70" waitingTime="5.00" waitingCount="1" stopTime="0.00" timeLoss="24.12" rerouteNo="0" devices="tripinfo_WE_247" vType="car" speedFactor="0.89" vaporized=""/>
    <tripinfo id="SN_65" depart="68.00" departLane="3i_0" departPos="4.10" departSpeed="0.00" departDelay="3.00" arrival="353.00" arrivalLane="4o_0" arrivalPos="492.80" arrivalSpeed="8.98" duration="285.00" routeLength="995.90" waitingTime="175.00" waitingCount="4" stopTime="0.00" timeLoss="207.38" rerouteNo="0" devices="tripinfo_SN_65" vType="car" speedFactor="0.92" vaporized=""/>
    <tripinfo id="WE_257" depart="259.00" departLane="1i_0" departPos="4.10" departSpeed="0.00" departDelay="2.00" arrival="354.00" arrivalLane="4o_0" arrivalPos="492.80" arrivalSpeed="11.89" duration="95.00" routeLength="995.70" waitingTime="0.00" waitingCount="0" stopTime="0.00" timeLoss="30.17" rerouteNo="0" devices="tripinfo_WE_257" vType="car" speedFactor="1.09" vaporized=""/>
    <tripinfo id="EW_165" depart="165.00" departLane="4i_0" departPos="10.10" departSpeed="0.00" departDelay="0.00" arrival="358.00" arrivalLane="1o_0" arrivalPos="492.80" arrivalSpeed="11.11" duration="193.00" routeLength="984.53" waitingTime="94.00" waitingCount="4" stopTime="0.00" timeLoss="125.05" rerouteNo="0" devices="tripinfo_EW_165" vType="truck" speedFactor="1.04" vaporized=""/>
    <tripinfo id="SN_70" depart="71.00" departLane="3i_0" departPos="4.10" departSpeed="0.00" departDelay="1.00" arrival="361.00" arrivalLane="2o_0" arrivalPos="492.80" arrivalSpeed="10.36" duration="290.00" routeLength="990.53" waitingTime="183.00" waitingCount="6" stopTime="0.00" timeLoss="215.20" rerouteNo="0" devices="tripinfo_SN_70" vType="car" speedFactor="0.95" vaporized=""/>
    <tripinfo id="NS_281" depart="281.00" departLane="2i_0" departPos="4.10" departSpeed="0.00" departDelay="0.00" arrival="363.00" arrivalLane="3o_0" arrivalPos="492.80" arrivalSpeed="10.09" duration="82.00" routeLength="995.70" waitingTime="0.00" waitingCount="0" stopTime="0.00" timeLoss="8.96" rerouteNo="0" devices="tripinfo_NS_281" vType="car" speedFactor="0.97" vaporized=""/>
    <tripinfo id="NS_284" depart="285.00" departLane="2i_0" departPos="10.10" departSpeed="0.00" departDelay="1.00" arrival="372.00" arrivalLane="3o_0" arrivalPos="492.80" arrivalSpeed="10.47" duration="87.00" routeLength="989.70" waitingTime="0.00" waitingCount="0" stopTime="0.00" timeLoss="14.83" rerouteNo="0" devices="tripinfo_NS_284" vType="truck" speedFactor="0.98" vaporized=""/>
    <tripinfo id="WE_285" depart="285.00" departLane="1i_0" departPos="4.10" departSpeed="0.00" departDelay="0.00" arrival="373.00" arrivalLane="2o_0" arrivalPos="492.80" arrivalSpeed="9.60" duration="88.00" routeLength="995.90" waitingTime="0.00" waitingCount="0" stopTime="0.00" timeLoss="8.64" rerouteNo="0" devices="tripinfo_WE_285" vType="car" speedFactor="0.89" vaporized=""/>
    <tripinfo id="SN_86" depart="86.00" departLane="3i_0" departPos="4.10" departSpeed="0.00" departDelay="0.00" arrival="375.00" arrivalLane="2o_0" arrivalPos="492.80" arrivalSpeed="12.52" duration="289.00" routeLength="990.53" waitingTime="184.00" waitingCount="6" stopTime="0.00" timeLoss="227.44" rerouteNo="0" devices="tripinfo_SN_86" vType="car" speedFactor="1.15" vaporized=""/>
    <tripinfo id="SN_74" depart="75.00" departLane="3i_0" departPos="4.10" departSpeed="0.00" departDelay="1.00" arrival="380.00" arrivalLane="4o_0" arrivalPos="492.80" arrivalSpeed="9.94" duration="305.00" routeLength="995.90" waitingTime="189.00" waitingCount="6" stopTime="0.00" timeLoss="229.20" rerouteNo="0" devices="tripinfo_SN_74" vType="car" speedFactor="0.93" vaporized=""/>
    <tripinfo id="EW_208" depart="208.00" departLane="4i_0" departPos="4.10" departSpeed="0.00" departDelay="0.00" arrival="380.00" arrivalLane="1o_0" arrivalPos="492.80" arrivalSpeed="9.90" duration="172.00" routeLength="990.53" waitingTime="61.00" waitingCount="5" stopTime="0.00" timeLoss="99.99" rerouteNo="0" devices="tripinfo_EW_208" vType="car" speedFactor="0.98" vaporized=""/>