<?xml version="1.0" encoding="UTF-8"?>

<!-- generated on 2024-05-05 17:29:20 by Eclipse SUMO sumo Version 1.19.0
<configuration xmlns:xsi="http://www.w3.org/2001/XMLSchema-instance" xsi:noNamespaceSchemaLocation="http://sumo.dlr.de/xsd/sumoConfiguration.xsd">

    <input>
        <net-file value="twoone.net.xml"/>
        <route-files value="route_gen.rou.xml"/>
    </input>

    <output>
        <tripinfo-output value="tripinfo_epi313.xml"/>
    </output>

    <report>
        <no-warnings value="true"/>
    </report>

    <traci_server>
        <remote-port value="39031"/>
    </traci_server>

</configuration>
-->

<tripinfos xmlns:xsi="http://www.w3.org/2001/XMLSchema-instance" xsi:noNamespaceSchemaLocation="http://sumo.dlr.de/xsd/tripinfo_file.xsd">
    <tripinfo id="NS_5" depart="5.00" departLane="2i_0" departPos="4.10" departSpeed="0.00" departDelay="0.00" arrival="84.00" arrivalLane="1o_0" arrivalPos="492.80" arrivalSpeed="11.68" duration="79.00" routeLength="995.90" waitingTime="1.00" waitingCount="1" stopTime="0.00" timeLoss="11.82" rerouteNo="0" devices="tripinfo_NS_5" vType="car" speedFactor="1.06" vaporized=""/>
    <tripinfo id="WE_8" depart="8.00" departLane="1i_0" departPos="4.10" departSpeed="0.00" departDelay="0.00" arrival="85.00" arrivalLane="3o_0" arrivalPos="492.80" arrivalSpeed="10.43" duration="77.00" routeLength="990.53" waitingTime="0.00" waitingCount="0" stopTime="0.00" timeLoss="7.15" rerouteNo="0" devices="tripinfo_WE_8" vType="car" speedFactor="1.01" vaporized=""/>
    <tripinfo id="EW_11" depart="11.00" departLane="4i_0" departPos="4.10" departSpeed="0.00" departDelay="0.00" arrival="100.00" arrivalLane="3o_0" arrivalPos="492.80" arrivalSpeed="10.44" duration="89.00" routeLength="995.90" waitingTime="6.00" waitingCount="1" stopTime="0.00" timeLoss="19.74" rerouteNo="0" devices="tripinfo_EW_11" vType="car" speedFactor="1.03" vaporized=""/>
    <tripinfo id="EW_17" depart="17.00" departLane="4i_0" departPos="4.10" departSpeed="0.00" departDelay="0.00" arrival="100.00" arrivalLane="1o_0" arrivalPos="492.80" arrivalSpeed="10.91" duration="83.00" routeLength="990.53" waitingTime="2.00" waitingCount="1" stopTime="0.00" timeLoss="15.58" rerouteNo="0" devices="tripinfo_EW_17" vType="car" speedFactor="1.05" vaporized=""/>
    <tripinfo id="SN_8" depart="8.00" departLane="3i_0" departPos="4.10" departSpeed="0.00" departDelay="0.00" arrival="102.00" arrivalLane="1o_0" arrivalPos="492.80" arrivalSpeed="10.99" duration="94.00" routeLength="995.70" waitingTime="12.00" waitingCount="1" stopTime="0.00" timeLoss="28.68" rerouteNo="0" devices="tripinfo_SN_8" vType="car" speedFactor="1.08" vaporized=""/>
    <tripinfo id="SN_5" depart="5.00" departLane="3i_0" departPos="4.10" departSpeed="0.00" departDelay="0.00" arrival="105.00" arrivalLane="4o_0" arrivalPos="492.80" arrivalSpeed="9.42" duration="100.00" routeLength="995.90" waitingTime="13.00" waitingCount="1" stopTime="0.00" timeLoss="24.16" rerouteNo="0" devices="tripinfo_SN_5" vType="car" speedFactor="0.94" vaporized=""/>
    <tripinfo id="WE_36" depart="36.00" departLane="1i_0" departPos="4.10" departSpeed="0.00" departDelay="0.00" arrival="109.00" arrivalLane="2o_0" arrivalPos="492.80" arrivalSpeed="11.29" duration="73.00" routeLength="995.90" waitingTime="0.00" waitingCount="0" stopTime="0.00" timeLoss="7.47" rerouteNo="0" devices="tripinfo_WE_36" vType="car" speedFactor="1.09" vaporized=""/>
    <tripinfo id="NS_27" depart="27.00" departLane="2i_0" departPos="4.10" departSpeed="0.00" departDelay="0.00" arrival="111.00" arrivalLane="4o_0" arrivalPos="492.80" arrivalSpeed="10.24" duration="84.00" routeLength="990.53" waitingTime="0.00" waitingCount="0" stopTime="0.00" timeLoss="9.15" rerouteNo="0" devices="tripinfo_NS_27" vType="car" speedFactor="0.94" vaporized=""/>
    <tripinfo id="WE_23" depart="23.00" departLane="1i_0" departPos="4.10" departSpeed="0.00" departDelay="0.00" arrival="114.00" arrivalLane="3o_0" arrivalPos="492.80" arrivalSpeed="8.94" duration="91.00" routeLength="990.53" waitingTime="2.00" waitingCount="1" stopTime="0.00" timeLoss="11.70" rerouteNo="0" devices="tripinfo_WE_23" vType="car" speedFactor="0.89" vaporized=""/>
    <tripinfo id="SN_14" depart="14.00" departLane="3i_0" departPos="4.10" departSpeed="0.00" departDelay="0.00" arrival="117.00" arrivalLane="1o_0" arrivalPos="492.80" arrivalSpeed="8.83" duration="103.00" routeLength="995.70" waitingTime="1.00" waitingCount="1" stopTime="0.00" timeLoss="17.79" rerouteNo="0" devices="tripinfo_SN_14" vType="car" speedFactor="0.83" vaporized=""/>
    <tripinfo id="WE_44" depart="44.00" departLane="1i_0" departPos="4.10" departSpeed="0.00" departDelay="0.00" arrival="121.00" arrivalLane="2o_0" arrivalPos="492.80" arrivalSpeed="10.55" duration="77.00" routeLength="995.90" waitingTime="0.00" waitingCount="0" stopTime="0.00" timeLoss="7.76" rerouteNo="0" devices="tripinfo_WE_44" vType="car" speedFactor="1.03" vaporized=""/>
    <tripinfo id="NS_44" depart="44.00" departLane="2i_0" departPos="4.10" departSpeed="0.00" departDelay="0.00" arrival="122.00" arrivalLane="3o_0" arrivalPos="492.80" arrivalSpeed="11.43" duration="78.00" routeLength="995.70" waitingTime="0.00" waitingCount="0" stopTime="0.00" timeLoss="9.84" rerouteNo="0" devices="tripinfo_NS_44" vType="car" speedFactor="1.05" vaporized=""/>
    <tripinfo id="SN_30" depart="30.00" departLane="3i_0" departPos="4.10" departSpeed="0.00" departDelay="0.00" arrival="124.00" arrivalLane="4o_0" arrivalPos="492.80" arrivalSpeed="9.26" duration="94.00" routeLength="995.90" waitingTime="0.00" waitingCount="0" stopTime="0.00" timeLoss="11.15" rerouteNo="0" devices="tripinfo_SN_30" vType="car" speedFactor="0.86" vaporized=""/>
    <tripinfo id="EW_49" depart="49.00" departLane="4i_0" departPos="4.10" departSpeed="0.00" departDelay="0.00" arrival="134.00" arrivalLane="1o_0" arrivalPos="492.80" arrivalSpeed="9.17" duration="85.00" routeLength="990.53" waitingTime="0.00" waitingCount="0" stopTime="0.00" timeLoss="8.64" rerouteNo="0" devices="tripinfo_EW_49" vType="car" speedFactor="0.93" vaporized=""/>
    <tripinfo id="WE_54" depart="54.00" departLane="1i_0" departPos="4.10" departSpeed="0.00" departDelay="0.00" arrival="139.00" arrivalLane="3o_0" arrivalPos="492.80" arrivalSpeed="9.45" duration="85.00" routeLength="990.53" waitingTime="0.00" waitingCount="0" stopTime="0.00" timeLoss="9.52" rerouteNo="0" devices="tripinfo_WE_54" vType="car" speedFactor="0.94" vaporized=""/>
    <tripinfo id="NS_45" depart="47.00" departLane="2i_0" departPos="10.10" departSpeed="0.00" departDelay="2.00" arrival="141.00" arrivalLane="3o_0" arrivalPos="492.80" arrivalSpeed="11.30" duration="94.00" routeLength="989.70" waitingTime="1.00" waitingCount="1" stopTime="0.00" timeLoss="26.70" rerouteNo="0" devices="tripinfo_NS_45" vType="truck" speedFactor="1.06" vaporized=""/>
    <tripinfo id="SN_51" depart="51.00" departLane="3i_0" departPos="4.10" departSpeed="0.00" departDelay="0.00" arrival="141.00" arrivalLane="4o_0" arrivalPos="492.80" arrivalSpeed="8.87" duration="90.00" routeLength="995.90" waitingTime="0.00" waitingCount="0" stopTime="0.00" timeLoss="9.00" rerouteNo="0" devices="tripinfo_SN_51" vType="car" speedFactor="0.88" vaporized=""/>
    <tripinfo id="NS_47" depart="51.00" departLane="2i_0" departPos="4.10" departSpeed="0.00" departDelay="4.00" arrival="143.00" arrivalLane="1o_0" arrivalPos="492.80" arrivalSpeed="10.63" duration="92.00" routeLength="995.90" waitingTime="1.00" waitingCount="1" stopTime="0.00" timeLoss="20.71" rerouteNo="0" devices="tripinfo_NS_47" vType="car" speedFactor="0.99" vaporized=""/>
    <tripinfo id="EW_61" depart="61.00" departLane="4i_0" departPos="4.10" departSpeed="0.00" departDelay="0.00" arrival="143.00" arrivalLane="3o_0" arrivalPos="492.80" arrivalSpeed="12.31" duration="82.00" routeLength="995.90" waitingTime="0.00" waitingCount="0" stopTime="0.00" timeLoss="20.87" rerouteNo="0" devices="tripinfo_EW_61" vType="car" speedFactor="1.16" vaporized=""/>
    <tripinfo id="NS_60" depart="60.00" departLane="2i_0" departPos="4.10" departSpeed="0.00" departDelay="0.00" arrival="149.00" arrivalLane="1o_0" arrivalPos="492.80" arrivalSpeed="9.30" duration="89.00" routeLength="995.90" waitingTime="0.00" waitingCount="0" stopTime="0.00" timeLoss="12.77" rerouteNo="0" devices="tripinfo_NS_60" vType="car" speedFactor="0.94" vaporized=""/>
    <tripinfo id="NS_66" depart="66.00" departLane="2i_0" departPos="4.10" departSpeed="0.00" departDelay="0.00" arrival="150.00" arrivalLane="1o_0" arrivalPos="492.80" arrivalSpeed="10.02" duration="84.00" routeLength="995.90" waitingTime="0.00" waitingCount="0" stopTime="0.00" timeLoss="13.93" rerouteNo="0" devices="tripinfo_NS_66" vType="car" speedFactor="1.01" vaporized=""/>
    <tripinfo id="SN_64" depart="64.00" departLane="3i_0" departPos="4.10" departSpeed="0.00" departDelay="0.00" arrival="152.00" arrivalLane="1o_0" arrivalPos="492.80" arrivalSpeed="11.03" duration="88.00" routeLength="995.70" waitingTime="2.00" waitingCount="1" stopTime="0.00" timeLoss="18.40" rerouteNo="0" devices="tripinfo_SN_64" vType="car" speedFactor="1.02" vaporized=""/>
    <tripinfo id="EW_69" depart="69.00" departLane="4i_0" departPos="4.10" departSpeed="0.00" departDelay="0.00" arrival="156.00" arrivalLane="1o_0" arrivalPos="492.80" arrivalSpeed="9.86" duration="87.00" routeLength="990.53" waitingTime="1.00" waitingCount="1" stopTime="0.00" timeLoss="14.84" rerouteNo="0" devices="tripinfo_EW_69" vType="car" speedFactor="0.97" vaporized=""/>
    <tripinfo id="WE_70" depart="70.00" departLane="1i_0" departPos="4.10" departSpeed="0.00" departDelay="0.00" arrival="158.00" arrivalLane="2o_0" arrivalPos="492.80" arrivalSpeed="8.72" duration="88.00" routeLength="995.90" waitingTime="0.00" waitingCount="0" stopTime="0.00" timeLoss="8.75" rerouteNo="0" devices="tripinfo_WE_70" vType="car" speedFactor="0.89" vaporized=""/>
    <tripinfo id="NS_76" depart="76.00" departLane="2i_0" departPos="4.10" departSpeed="0.00" departDelay="0.00" arrival="162.00" arrivalLane="1o_0" arrivalPos="492.80" arrivalSpeed="10.24" duration="86.00" routeLength="995.90" waitingTime="0.00" waitingCount="0" stopTime="0.00" timeLoss="11.05" rerouteNo="0" devices="tripinfo_NS_76" vType="car" speedFactor="0.95" vaporized=""/>
    <tripinfo id="EW_71" depart="71.00" departLane="4i_0" departPos="4.10" departSpeed="0.00" departDelay="0.00" arrival="168.00" arrivalLane="3o_0" arrivalPos="492.80" arrivalSpeed="8.39" duration="97.00" routeLength="995.90" waitingTime="0.00" waitingCount="0" stopTime="0.00" timeLoss="11.41" rerouteNo="0" devices="tripinfo_EW_71" vType="car" speedFactor="0.83" vaporized=""/>
    <tripinfo id="SN_80" depart="80.00" departLane="3i_0" departPos="4.10" departSpeed="0.00" departDelay="0.00" arrival="174.00" arrivalLane="4o_0" arrivalPos="492.80" arrivalSpeed="9.95" duration="94.00" routeLength="995.90" waitingTime="4.00" waitingCount="1" stopTime="0.00" timeLoss="17.70" rerouteNo="0" devices="tripinfo_SN_80" vType="car" speedFactor="0.93" vaporized=""/>
    <tripinfo id="SN_75" depart="75.00" departLane="3i_0" departPos="4.10" departSpeed="0.00" departDelay="0.00" arrival="175.00" arrivalLane="2o_0" arrivalPos="492.80" arrivalSpeed="9.18" duration="100.00" routeLength="990.53" waitingTime="8.00" waitingCount="1" stopTime="0.00" timeLoss="18.99" rerouteNo="0" devices="tripinfo_SN_75" vType="car" speedFactor="0.87" vaporized=""/>
    <tripinfo id="WE_94" depart="94.00" departLane="1i_0" departPos="4.10" departSpeed="0.00" departDelay="0.00" arrival="176.00" arrivalLane="4o_0" arrivalPos="492.80" arrivalSpeed="10.54" duration="82.00" routeLength="995.70" waitingTime="0.00" waitingCount="0" stopTime="0.00" timeLoss="11.15" rerouteNo="0" devices="tripinfo_WE_94" vType="car" speedFactor="1.01" vaporized=""/>
    <tripinfo id="SN_81" depart="83.00" departLane="3i_0" departPos="4.10" departSpeed="0.00" departDelay="2.00" arrival="177.00" arrivalLane="4o_0" arrivalPos="492.80" arrivalSpeed="12.99" duration="94.00" routeLength="995.90" waitingTime="6.00" waitingCount="2" stopTime="0.00" timeLoss="34.05" rerouteNo="0" devices="tripinfo_SN_81" vType="car" speedFactor="1.18" vaporized=""/>
    <tripinfo id="EW_76" depart="76.00" departLane="4i_0" departPos="4.10" departSpeed="0.00" departDelay="0.00" arrival="178.00" arrivalLane="2o_0" arrivalPos="492.80" arrivalSpeed="9.40" duration="102.00" routeLength="995.70" waitingTime="7.00" waitingCount="2" stopTime="0.00" timeLoss="24.69" rerouteNo="0" devices="tripinfo_EW_76" vType="car" speedFactor="0.92" vaporized=""/>
    <tripinfo id="WE_95" depart="97.00" departLane="1i_0" departPos="4.10" departSpeed="0.00" departDelay="2.00" arrival="179.00" arrivalLane="4o_0" arrivalPos="492.80" arrivalSpeed="12.43" duration="82.00" routeLength="995.70" waitingTime="0.00" waitingCount="0" stopTime="0.00" timeLoss="21.39" rerouteNo="0" devices="tripinfo_WE_95" vType="car" speedFactor="1.17" vaporized=""/>
    <tripinfo id="EW_79" depart="79.00" departLane="4i_0" departPos="4.10" departSpeed="0.00" departDelay="0.00" arrival="183.00" arrivalLane="2o_0" arrivalPos="492.80" arrivalSpeed="12.17" duration="104.00" routeLength="995.70" waitingTime="15.00" waitingCount="4" stopTime="0.00" timeLoss="41.47" rerouteNo="0" devices="tripinfo_EW_79" vType="car" speedFactor="1.13" vaporized=""/>
    <tripinfo id="NS_95" depart="95.00" departLane="2i_0" departPos="10.10" departSpeed="0.00" departDelay="0.00" arrival="184.00" arrivalLane="1o_0" arrivalPos="492.80" arrivalSpeed="10.68" duration="89.00" routeLength="989.90" waitingTime="0.00" waitingCount="0" stopTime="0.00" timeLoss="18.02" rerouteNo="0" devices="tripinfo_NS_95" vType="truck" speedFactor="1.00" vaporized=""/>
    <tripinfo id="NS_96" depart="99.00" departLane="2i_0" departPos="4.10" departSpeed="0.00" departDelay="3.00" arrival="185.00" arrivalLane="4o_0" arrivalPos="492.80" arrivalSpeed="10.35" duration="86.00" routeLength="990.53" waitingTime="0.00" waitingCount="0" stopTime="0.00" timeLoss="16.91" rerouteNo="0" devices="tripinfo_NS_96" vType="car" speedFactor="1.02" vaporized=""/>
    <tripinfo id="NS_98" depart="103.00" departLane="2i_0" departPos="10.10" departSpeed="0.00" departDelay="5.00" arrival="186.00" arrivalLane="1o_0" arrivalPos="492.80" arrivalSpeed="11.92" duration="83.00" routeLength="989.90" waitingTime="0.00" waitingCount="0" stopTime="0.00" timeLoss="16.82" rerouteNo="0" devices="tripinfo_NS_98" vType="truck" speedFactor="1.09" vaporized=""/>
    <tripinfo id="NS_110" depart="110.00" departLane="2i_0" departPos="4.10" departSpeed="0.00" departDelay="0.00" arrival="191.00" arrivalLane="4o_0" arrivalPos="492.80" arrivalSpeed="11.07" duration="81.00" routeLength="990.53" waitingTime="0.00" waitingCount="0" stopTime="0.00" timeLoss="12.50" rerouteNo="0" devices="tripinfo_NS_110" vType="car" speedFactor="1.03" vaporized=""/>
    <tripinfo id="WE_104" depart="104.00" departLane="1i_0" departPos="4.10" departSpeed="0.00" departDelay="0.00" arrival="196.00" arrivalLane="2o_0" arrivalPos="492.80" arrivalSpeed="8.71" duration="92.00" routeLength="995.90" waitingTime="0.00" waitingCount="0" stopTime="0.00" timeLoss="13.44" rerouteNo="0" devices="tripinfo_WE_104" vType="car" speedFactor="0.90" vaporized=""/>
    <tripinfo id="EW_93" depart="93.00" departLane="4i_0" departPos="4.10" departSpeed="0.00" departDelay="0.00" arrival="198.00" arrivalLane="3o_0" arrivalPos="492.80" arrivalSpeed="12.20" duration="105.00" routeLength="995.90" waitingTime="19.00" waitingCount="3" stopTime="0.00" timeLoss="43.24" rerouteNo="0" devices="tripinfo_EW_93" vType="car" speedFactor="1.15" vaporized=""/>
    <tripinfo id="WE_113" depart="113.00" departLane="1i_0" departPos="4.10" departSpeed="0.00" departDelay="0.00" arrival="198.00" arrivalLane="2o_0" arrivalPos="492.80" arrivalSpeed="11.45" duration="85.00" routeLength="995.90" waitingTime="0.00" waitingCount="0" stopTime="0.00" timeLoss="19.84" rerouteNo="0" devices="tripinfo_WE_113" vType="car" speedFactor="1.09" vaporized=""/>
    <tripinfo id="SN_97" depart="97.00" departLane="3i_0" departPos="4.10" departSpeed="0.00" departDelay="0.00" arrival="206.00" arrivalLane="4o_0" arrivalPos="492.80" arrivalSpeed="9.84" duration="109.00" routeLength="995.90" waitingTime="21.00" waitingCount="1" stopTime="0.00" timeLoss="36.13" rerouteNo="0" devices="tripinfo_SN_97" vType="car" speedFactor="0.97" vaporized=""/>
    <tripinfo id="EW_115" depart="115.00" departLane="4i_0" departPos="4.10" departSpeed="0.00" departDelay="0.00" arrival="206.00" arrivalLane="3o_0" arrivalPos="492.80" arrivalSpeed="10.49" duration="91.00" routeLength="995.90" waitingTime="7.00" waitingCount="1" stopTime="0.00" timeLoss="22.73" rerouteNo="0" devices="tripinfo_EW_115" vType="car" speedFactor="1.04" vaporized=""/>
    <tripinfo id="SN_102" depart="102.00" departLane="3i_0" departPos="4.10" departSpeed="0.00" departDelay="0.00" arrival="208.00" arrivalLane="4o_0" arrivalPos="492.80" arrivalSpeed="12.05" duration="106.00" routeLength="995.90" waitingTime="19.00" waitingCount="1" stopTime="0.00" timeLoss="41.32" rerouteNo="0" devices="tripinfo_SN_102" vType="car" speedFactor="1.10" vaporized=""/>
    <tripinfo id="EW_116" depart="118.00" departLane="4i_0" departPos="4.10" departSpeed="0.00" departDelay="2.00" arrival="209.00" arrivalLane="1o_0" arrivalPos="492.80" arrivalSpeed="11.31" duration="91.00" routeLength="990.53" waitingTime="5.00" waitingCount="1" stopTime="0.00" timeLoss="23.69" rerouteNo="0" devices="tripinfo_EW_116" vType="car" speedFactor="1.04" vaporized=""/>
    <tripinfo id="EW_135" depart="135.00" departLane="4i_0" departPos="4.10" departSpeed="0.00" departDelay="0.00" arrival="214.00" arrivalLane="2o_0" arrivalPos="492.80" arrivalSpeed="11.08" duration="79.00" routeLength="995.70" waitingTime="0.00" waitingCount="0" stopTime="0.00" timeLoss="14.01" rerouteNo="0" devices="tripinfo_EW_135" vType="car" speedFactor="1.10" vaporized=""/>
    <tripinfo id="NS_123" depart="123.00" departLane="2i_0" departPos="4.10" departSpeed="0.00" departDelay="0.00" arrival="217.00" arrivalLane="3o_0" arrivalPos="492.80" arrivalSpeed="9.84" duration="94.00" routeLength="995.70" waitingTime="2.00" waitingCount="2" stopTime="0.00" timeLoss="14.90" rerouteNo="0" devices="tripinfo_NS_123" vType="car" speedFactor="0.90" vaporized=""/>
    <tripinfo id="SN_110" depart="110.00" departLane="3i_0" departPos="4.10" departSpeed="0.00" departDelay="0.00" arrival="218.00" arrivalLane="4o_0" arrivalPos="492.80" arrivalSpeed="9.49" duration="108.00" routeLength="995.90" waitingTime="11.00" waitingCount="1" stopTime="0.00" timeLoss="33.73" rerouteNo="0" devices="tripinfo_SN_110" vType="car" speedFactor="0.96" vaporized=""/>
    <tripinfo id="EW_117" depart="121.00" departLane="4i_0" departPos="4.10" departSpeed="0.00" departDelay="4.00" arrival="219.00" arrivalLane="3o_0" arrivalPos="492.80" arrivalSpeed="10.85" duration="98.00" routeLength="995.90" waitingTime="5.00" waitingCount="1" stopTime="0.00" timeLoss="32.35" rerouteNo="0" devices="tripinfo_EW_117" vType="car" speedFactor="1.09" vaporized=""/>
    <tripinfo id="NS_132" depart="132.00" departLane="2i_0" departPos="4.10" departSpeed="0.00" departDelay="0.00" arrival="219.00" arrivalLane="4o_0" arrivalPos="492.80" arrivalSpeed="12.09" duration="87.00" routeLength="990.53" waitingTime="2.00" waitingCount="2" stopTime="0.00" timeLoss="26.87" rerouteNo="0" devices="tripinfo_NS_132" vType="car" speedFactor="1.17" vaporized=""/>
    <tripinfo id="SN_120" depart="122.00" departLane="3i_0" departPos="4.10" departSpeed="0.00" departDelay="2.00" arrival="221.00" arrivalLane="1o_0" arrivalPos="492.80" arrivalSpeed="10.47" duration="99.00" routeLength="995.70" waitingTime="2.00" waitingCount="1" stopTime="0.00" timeLoss="27.81" rerouteNo="0" devices="tripinfo_SN_120" vType="car" speedFactor="1.00" vaporized=""/>
    <tripinfo id="EW_126" depart="126.00" departLane="4i_0" departPos="4.10" departSpeed="0.00" departDelay="0.00" arrival="224.00" arrivalLane="3o_0" arrivalPos="492.80" arrivalSpeed="8.55" duration="98.00" routeLength="995.90" waitingTime="0.00" waitingCount="0" stopTime="0.00" timeLoss="15.25" rerouteNo="0" devices="tripinfo_EW_126" vType="car" speedFactor="0.85" vaporized=""/>
    <tripinfo id="WE_126" depart="126.00" departLane="1i_0" departPos="4.10" departSpeed="0.00" departDelay="0.00" arrival="229.00" arrivalLane="3o_0" arrivalPos="492.80" arrivalSpeed="8.28" duration="103.00" routeLength="990.53" waitingTime="7.00" waitingCount="2" stopTime="0.00" timeLoss="20.21" rerouteNo="0" devices="tripinfo_WE_126" vType="car" speedFactor="0.85" vaporized=""/>
    <tripinfo id="NS_151" depart="151.00" departLane="2i_0" departPos="4.10" departSpeed="0.00" departDelay="0.00" arrival="230.00" arrivalLane="1o_0" arrivalPos="492.80" arrivalSpeed="11.03" duration="79.00" routeLength="995.90" waitingTime="0.00" waitingCount="0" stopTime="0.00" timeLoss="7.85" rerouteNo="0" devices="tripinfo_NS_151" vType="car" speedFactor="1.00" vaporized=""/>
    <tripinfo id="SN_124" depart="124.00" departLane="3i_0" departPos="4.10" departSpeed="0.00" departDelay="0.00" arrival="234.00" arrivalLane="4o_0" arrivalPos="492.80" arrivalSpeed="9.47" duration="110.00" routeLength="995.90" waitingTime="4.00" waitingCount="2" stopTime="0.00" timeLoss="28.67" rerouteNo="0" devices="tripinfo_SN_124" vType="car" speedFactor="0.88" vaporized=""/>
    <tripinfo id="NS_153" depart="154.00" departLane="2i_0" departPos="4.10" departSpeed="0.00" departDelay="1.00" arrival="235.00" arrivalLane="4o_0" arrivalPos="492.80" arrivalSpeed="10.56" duration="81.00" routeLength="990.53" waitingTime="0.00" waitingCount="0" stopTime="0.00" timeLoss="10.23" rerouteNo="0" devices="tripinfo_NS_153" vType="car" speedFactor="1.00" vaporized=""/>
    <tripinfo id="WE_164" depart="164.00" departLane="1i_0" departPos="4.10" departSpeed="0.00" departDelay="0.00" arrival="235.00" arrivalLane="2o_0" arrivalPos="492.80" arrivalSpeed="12.30" duration="71.00" routeLength="995.90" waitingTime="0.00" waitingCount="0" stopTime="0.00" timeLoss="8.76" rerouteNo="0" devices="tripinfo_WE_164" vType="car" speedFactor="1.14" vaporized=""/>
    <tripinfo id="SN_133" depart="133.00" departLane="3i_0" departPos="4.10" departSpeed="0.00" departDelay="0.00" arrival="239.00" arrivalLane="4o_0" arrivalPos="492.80" arrivalSpeed="10.25" duration="106.00" routeLength="995.90" waitingTime="10.00" waitingCount="2" stopTime="0.00" timeLoss="35.83" rerouteNo="0" devices="tripinfo_SN_133" vType="car" speedFactor="1.02" vaporized=""/>
    <tripinfo id="NS_158" depart="158.00" departLane="2i_0" departPos="4.10" departSpeed="0.00" departDelay="0.00" arrival="246.00" arrivalLane="4o_0" arrivalPos="492.80" arrivalSpeed="9.57" duration="88.00" routeLength="990.53" waitingTime="0.00" waitingCount="0" stopTime="0.00" timeLoss="9.76" rerouteNo="0" devices="tripinfo_NS_158" vType="car" speedFactor="0.90" vaporized=""/>
    <tripinfo id="NS_167" depart="167.00" departLane="2i_0" departPos="10.10" departSpeed="0.00" departDelay="0.00" arrival="258.00" arrivalLane="1o_0" arrivalPos="492.80" arrivalSpeed="11.14" duration="91.00" routeLength="989.90" waitingTime="2.00" waitingCount="1" stopTime="0.00" timeLoss="20.75" rerouteNo="0" devices="tripinfo_NS_167" vType="truck" speedFactor="1.01" vaporized=""/>
    <tripinfo id="EW_176" depart="177.00" departLane="4i_0" departPos="4.10" departSpeed="0.00" departDelay="1.00" arrival="260.00" arrivalLane="1o_0" arrivalPos="492.80" arrivalSpeed="10.97" duration="83.00" routeLength="990.53" waitingTime="5.00" waitingCount="1" stopTime="0.00" timeLoss="17.54" rerouteNo="0" devices="tripinfo_EW_176" vType="car" speedFactor="1.08" vaporized=""/>
    <tripinfo id="NS_169" depart="171.00" departLane="2i_0" departPos="4.10" departSpeed="0.00" departDelay="2.00" arrival="263.00" arrivalLane="3o_0" arrivalPos="492.80" arrivalSpeed="10.34" duration="92.00" routeLength="995.70" waitingTime="0.00" waitingCount="0" stopTime="0.00" timeLoss="18.37" rerouteNo="0" devices="tripinfo_NS_169" vType="car" speedFactor="0.97" vaporized=""/>
    <tripinfo id="EW_180" depart="180.00" departLane="4i_0" departPos="4.10" departSpeed="0.00" departDelay="0.00" arrival="264.00" arrivalLane="3o_0" arrivalPos="492.80" arrivalSpeed="11.13" duration="84.00" routeLength="995.90" waitingTime="3.00" waitingCount="1" stopTime="0.00" timeLoss="20.83" rerouteNo="0" devices="tripinfo_EW_180" vType="car" speedFactor="1.12" vaporized=""/>
    <tripinfo id="EW_182" depart="182.00" departLane="4i_0" departPos="4.10" departSpeed="0.00" departDelay="0.00" arrival="265.00" arrivalLane="2o_0" arrivalPos="492.80" arrivalSpeed="11.00" duration="83.00" routeLength="995.70" waitingTime="0.00" waitingCount="0" stopTime="0.00" timeLoss="13.43" rerouteNo="0" devices="tripinfo_EW_182" vType="car" speedFactor="1.02" vaporized=""/>
    <tripinfo id="NS_182" depart="183.00" departLane="2i_0" departPos="4.10" departSpeed="0.00" departDelay="1.00" arrival="269.00" arrivalLane="3o_0" arrivalPos="492.80" arrivalSpeed="10.00" duration="86.00" routeLength="995.70" waitingTime="1.00" waitingCount="1" stopTime="0.00" timeLoss="14.34" rerouteNo="0" devices="tripinfo_NS_182" vType="car" speedFactor="0.99" vaporized=""/>
    <tripinfo id="NS_194" depart="196.00" departLane="2i_0" departPos="4.10" departSpeed="0.00" departDelay="2.00" arrival="275.00" arrivalLane="1o_0" arrivalPos="492.80" arrivalSpeed="10.74" duration="79.00" routeLength="995.90" waitingTime="0.00" waitingCount="0" stopTime="0.00" timeLoss="9.15" rerouteNo="0" devices="tripinfo_NS_194" vType="car" speedFactor="1.02" vaporized=""/>
    <tripinfo id="WE_186" depart="186.00" departLane="1i_0" departPos="4.10" departSpeed="0.00" departDelay="0.00" arrival="276.00" arrivalLane="3o_0" arrivalPos="492.80" arrivalSpeed="10.03" duration="90.00" routeLength="990.53" waitingTime="1.00" waitingCount="1" stopTime="0.00" timeLoss="14.42" rerouteNo="0" devices="tripinfo_WE_186" vType="car" speedFactor="0.94" vaporized=""/>
    <tripinfo id="NS_192" depart="192.00" departLane="2i_0" departPos="4.10" departSpeed="0.00" departDelay="0.00" arrival="279.00" arrivalLane="4o_0" arrivalPos="492.80" arrivalSpeed="9.38" duration="87.00" routeLength="990.53" waitingTime="0.00" waitingCount="0" stopTime="0.00" timeLoss="9.37" rerouteNo="0" devices="tripinfo_NS_192" vType="car" speedFactor="0.91" vaporized=""/>
    <tripinfo id="NS_195" depart="198.00" departLane="2i_0" departPos="4.10" departSpeed="0.00" departDelay="3.00" arrival="281.00" arrivalLane="4o_0" arrivalPos="492.80" arrivalSpeed="10.97" duration="83.00" routeLength="990.53" waitingTime="1.00" waitingCount="1" stopTime="0.00" timeLoss="13.69" rerouteNo="0" devices="tripinfo_NS_195" vType="car" speedFactor="1.02" vaporized=""/>
    <tripinfo id="WE_194" depart="194.00" departLane="1i_0" departPos="4.10" departSpeed="0.00" departDelay="0.00" arrival="283.00" arrivalLane="4o_0" arrivalPos="492.80" arrivalSpeed="11.44" duration="89.00" routeLength="995.70" waitingTime="3.00" waitingCount="1" stopTime="0.00" timeLoss="20.30" rerouteNo="0" devices="tripinfo_WE_194" vType="car" speedFactor="1.04" vaporized=""/>
    <tripinfo id="WE_199" depart="199.00" departLane="1i_0" departPos="4.10" departSpeed="0.00" departDelay="0.00" arrival="286.00" arrivalLane="4o_0" arrivalPos="492.80" arrivalSpeed="9.54" duration="87.00" routeLength="995.70" waitingTime="0.00" waitingCount="0" stopTime="0.00" timeLoss="14.08" rerouteNo="0" devices="tripinfo_WE_199" vType="car" speedFactor="0.97" vaporized=""/>
    <tripinfo id="SN_192" depart="192.00" departLane="3i_0" departPos="4.10" departSpeed="0.00" departDelay="0.00" arrival="287.00" arrivalLane="2o_0" arrivalPos="492.80" arrivalSpeed="9.06" duration="95.00" routeLength="990.53" waitingTime="8.00" waitingCount="1" stopTime="0.00" timeLoss="17.53" rerouteNo="0" devices="tripinfo_SN_192" vType="car" speedFactor="0.91" vaporized=""/>
    <tripinfo id="EW_188" depart="188.00" departLane="4i_0" departPos="10.10" departSpeed="0.00" departDelay="0.00" arrival="291.00" arrivalLane="3o_0" arrivalPos="492.80" arrivalSpeed="10.14" duration="103.00" routeLength="989.90" waitingTime="7.00" waitingCount="2" stopTime="0.00" timeLoss="28.16" rerouteNo="0" devices="tripinfo_EW_188" vType="truck" speedFactor="0.94" vaporized=""/>
    <tripinfo id="SN_202" depart="202.00" departLane="3i_0" departPos="4.10" departSpeed="0.00" departDelay="0.00" arrival="295.00" arrivalLane="1o_0" arrivalPos="492.80" arrivalSpeed="10.60" duration="93.00" routeLength="995.70" waitingTime="3.00" waitingCount="1" stopTime="0.00" timeLoss="19.06" rerouteNo="0" devices="tripinfo_SN_202" vType="car" speedFactor="0.96" vaporized=""/>
    <tripinfo id="WE_201" depart="202.00" departLane="1i_0" departPos="4.10" departSpeed="0.00" departDelay="1.00" arrival="296.00" arrivalLane="3o_0" arrivalPos="492.80" arrivalSpeed="9.62" duration="94.00" routeLength="990.53" waitingTime="4.00" waitingCount="2" stopTime="0.00" timeLoss="19.05" rerouteNo="0" devices="tripinfo_WE_201" vType="car" speedFactor="0.94" vaporized=""/>
    <tripinfo id="EW_202" depart="202.00" departLane="4i_0" departPos="4.10" departSpeed="0.00" departDelay="0.00" arrival="297.00" arrivalLane="1o_0" arrivalPos="492.80" arrivalSpeed="10.46" duration="95.00" routeLength="990.53" waitingTime="2.00" waitingCount="1" stopTime="0.00" timeLoss="28.27" rerouteNo="0" devices="tripinfo_EW_202" vType="car" speedFactor="1.06" vaporized=""/>
    <tripinfo id="NS_207" depart="207.00" departLane="2i_0" departPos="4.10" departSpeed="0.00" departDelay="0.00" arrival="298.00" arrivalLane="3o_0" arrivalPos="492.80" arrivalSpeed="10.69" duration="91.00" routeLength="995.70" waitingTime="4.00" waitingCount="1" stopTime="0.00" timeLoss="18.63" rerouteNo="0" devices="tripinfo_NS_207" vType="car" speedFactor="0.98" vaporized=""/>