<?xml version="1.0" encoding="UTF-8"?>

<!-- generated on 2024-05-05 17:27:28 by Eclipse SUMO sumo Version 1.19.0
<configuration xmlns:xsi="http://www.w3.org/2001/XMLSchema-instance" xsi:noNamespaceSchemaLocation="http://sumo.dlr.de/xsd/sumoConfiguration.xsd">

    <input>
        <net-file value="twoone.net.xml"/>
        <route-files value="route_gen.rou.xml"/>
    </input>

    <output>
        <tripinfo-output value="tripinfo_epi308.xml"/>
    </output>

    <report>
        <no-warnings value="true"/>
    </report>

    <traci_server>
        <remote-port value="60029"/>
    </traci_server>

</configuration>
-->

<tripinfos xmlns:xsi="http://www.w3.org/2001/XMLSchema-instance" xsi:noNamespaceSchemaLocation="http://sumo.dlr.de/xsd/tripinfo_file.xsd">
    <tripinfo id="SN_8" depart="8.00" departLane="3i_0" departPos="4.10" departSpeed="0.00" departDelay="0.00" arrival="84.00" arrivalLane="1o_0" arrivalPos="492.80" arrivalSpeed="11.99" duration="76.00" routeLength="995.70" waitingTime="0.00" waitingCount="0" stopTime="0.00" timeLoss="9.83" rerouteNo="0" devices="tripinfo_SN_8" vType="car" speedFactor="1.08" vaporized=""/>
    <tripinfo id="NS_1" depart="1.00" departLane="2i_0" departPos="4.10" departSpeed="0.00" departDelay="0.00" arrival="88.00" arrivalLane="4o_0" arrivalPos="492.80" arrivalSpeed="10.21" duration="87.00" routeLength="990.53" waitingTime="1.00" waitingCount="1" stopTime="0.00" timeLoss="11.39" rerouteNo="0" devices="tripinfo_NS_1" vType="car" speedFactor="0.94" vaporized=""/>
    <tripinfo id="WE_1" depart="1.00" departLane="1i_0" departPos="10.10" departSpeed="0.00" departDelay="0.00" arrival="90.00" arrivalLane="4o_0" arrivalPos="492.80" arrivalSpeed="11.34" duration="89.00" routeLength="989.70" waitingTime="0.00" waitingCount="0" stopTime="0.00" timeLoss="20.71" rerouteNo="0" devices="tripinfo_WE_1" vType="truck" speedFactor="1.03" vaporized=""/>
    <tripinfo id="NS_4" depart="4.00" departLane="2i_0" departPos="10.10" departSpeed="0.00" departDelay="0.00" arrival="97.00" arrivalLane="4o_0" arrivalPos="492.80" arrivalSpeed="10.82" duration="93.00" routeLength="984.53" waitingTime="4.00" waitingCount="1" stopTime="0.00" timeLoss="22.53" rerouteNo="0" devices="tripinfo_NS_4" vType="truck" speedFactor="1.01" vaporized=""/>
    <tripinfo id="SN_9" depart="10.00" departLane="3i_0" departPos="4.10" departSpeed="0.00" departDelay="1.00" arrival="97.00" arrivalLane="2o_0" arrivalPos="492.80" arrivalSpeed="10.55" duration="87.00" routeLength="990.53" waitingTime="7.00" waitingCount="1" stopTime="0.00" timeLoss="17.89" rerouteNo="0" devices="tripinfo_SN_9" vType="car" speedFactor="1.03" vaporized=""/>
    <tripinfo id="SN_14" depart="14.00" departLane="3i_0" departPos="4.10" departSpeed="0.00" departDelay="0.00" arrival="99.00" arrivalLane="2o_0" arrivalPos="492.80" arrivalSpeed="10.73" duration="85.00" routeLength="990.53" waitingTime="3.00" waitingCount="1" stopTime="0.00" timeLoss="17.35" rerouteNo="0" devices="tripinfo_SN_14" vType="car" speedFactor="1.05" vaporized=""/>
    <tripinfo id="NS_14" depart="14.00" departLane="2i_0" departPos="4.10" departSpeed="0.00" departDelay="0.00" arrival="110.00" arrivalLane="3o_0" arrivalPos="492.80" arrivalSpeed="8.95" duration="96.00" routeLength="995.70" waitingTime="0.00" waitingCount="0" stopTime="0.00" timeLoss="10.83" rerouteNo="0" devices="tripinfo_NS_14" vType="car" speedFactor="0.83" vaporized=""/>
    <tripinfo id="SN_15" depart="17.00" departLane="3i_0" departPos="4.10" departSpeed="0.00" departDelay="2.00" arrival="111.00" arrivalLane="1o_0" arrivalPos="492.80" arrivalSpeed="8.91" duration="94.00" routeLength="995.70" waitingTime="0.00" waitingCount="0" stopTime="0.00" timeLoss="14.29" rerouteNo="0" devices="tripinfo_SN_15" vType="car" speedFactor="0.89" vaporized=""/>
    <tripinfo id="NS_18" depart="18.00" departLane="2i_0" departPos="4.10" departSpeed="0.00" departDelay="0.00" arrival="111.00" arrivalLane="4o_0" arrivalPos="492.80" arrivalSpeed="8.26" duration="93.00" routeLength="990.53" waitingTime="0.00" waitingCount="0" stopTime="0.00" timeLoss="10.32" rerouteNo="0" devices="tripinfo_NS_18" vType="car" speedFactor="0.86" vaporized=""/>
    <tripinfo id="NS_19" depart="21.00" departLane="2i_0" departPos="4.10" departSpeed="0.00" departDelay="2.00" arrival="112.00" arrivalLane="3o_0" arrivalPos="492.80" arrivalSpeed="11.07" duration="91.00" routeLength="995.70" waitingTime="0.00" waitingCount="0" stopTime="0.00" timeLoss="21.70" rerouteNo="0" devices="tripinfo_NS_19" vType="car" speedFactor="1.03" vaporized=""/>
    <tripinfo id="NS_20" depart="23.00" departLane="2i_0" departPos="4.10" departSpeed="0.00" departDelay="3.00" arrival="113.00" arrivalLane="1o_0" arrivalPos="492.80" arrivalSpeed="10.58" duration="90.00" routeLength="995.90" waitingTime="0.00" waitingCount="0" stopTime="0.00" timeLoss="22.15" rerouteNo="0" devices="tripinfo_NS_20" vType="car" speedFactor="1.05" vaporized=""/>
    <tripinfo id="SN_18" depart="22.00" departLane="3i_0" departPos="4.10" departSpeed="0.00" departDelay="4.00" arrival="114.00" arrivalLane="2o_0" arrivalPos="492.80" arrivalSpeed="11.96" duration="92.00" routeLength="990.53" waitingTime="4.00" waitingCount="1" stopTime="0.00" timeLoss="26.82" rerouteNo="0" devices="tripinfo_SN_18" vType="car" speedFactor="1.09" vaporized=""/>
    <tripinfo id="NS_23" depart="29.00" departLane="2i_0" departPos="4.10" departSpeed="0.00" departDelay="6.00" arrival="114.00" arrivalLane="3o_0" arrivalPos="492.80" arrivalSpeed="10.73" duration="85.00" routeLength="995.70" waitingTime="0.00" waitingCount="0" stopTime="0.00" timeLoss="12.98" rerouteNo="0" devices="tripinfo_NS_23" vType="car" speedFactor="0.99" vaporized=""/>
    <tripinfo id="NS_22" depart="26.00" departLane="2i_0" departPos="4.10" departSpeed="0.00" departDelay="4.00" arrival="115.00" arrivalLane="1o_0" arrivalPos="492.80" arrivalSpeed="12.35" duration="89.00" routeLength="995.90" waitingTime="0.00" waitingCount="0" stopTime="0.00" timeLoss="25.24" rerouteNo="0" devices="tripinfo_NS_22" vType="car" speedFactor="1.12" vaporized=""/>
    <tripinfo id="SN_17" depart="20.00" departLane="3i_0" departPos="4.10" departSpeed="0.00" departDelay="3.00" arrival="118.00" arrivalLane="4o_0" arrivalPos="492.80" arrivalSpeed="10.00" duration="98.00" routeLength="995.90" waitingTime="5.00" waitingCount="1" stopTime="0.00" timeLoss="22.26" rerouteNo="0" devices="tripinfo_SN_17" vType="car" speedFactor="0.94" vaporized=""/>
    <tripinfo id="EW_27" depart="27.00" departLane="4i_0" departPos="4.10" departSpeed="0.00" departDelay="0.00" arrival="127.00" arrivalLane="2o_0" arrivalPos="492.80" arrivalSpeed="9.79" duration="100.00" routeLength="995.70" waitingTime="9.00" waitingCount="2" stopTime="0.00" timeLoss="23.84" rerouteNo="0" devices="tripinfo_EW_27" vType="car" speedFactor="0.93" vaporized=""/>
    <tripinfo id="WE_33" depart="33.00" departLane="1i_0" departPos="4.10" departSpeed="0.00" departDelay="0.00" arrival="127.00" arrivalLane="4o_0" arrivalPos="492.80" arrivalSpeed="9.11" duration="94.00" routeLength="995.70" waitingTime="1.00" waitingCount="1" stopTime="0.00" timeLoss="13.26" rerouteNo="0" devices="tripinfo_WE_33" vType="car" speedFactor="0.88" vaporized=""/>
    <tripinfo id="WE_36" depart="36.00" departLane="1i_0" departPos="4.10" departSpeed="0.00" departDelay="0.00" arrival="129.00" arrivalLane="4o_0" arrivalPos="492.80" arrivalSpeed="10.36" duration="93.00" routeLength="995.70" waitingTime="0.00" waitingCount="0" stopTime="0.00" timeLoss="17.35" rerouteNo="0" devices="tripinfo_WE_36" vType="car" speedFactor="0.94" vaporized=""/>
    <tripinfo id="SN_45" depart="46.00" departLane="3i_0" departPos="4.10" departSpeed="0.00" departDelay="1.00" arrival="129.00" arrivalLane="2o_0" arrivalPos="492.80" arrivalSpeed="11.74" duration="83.00" routeLength="990.53" waitingTime="0.00" waitingCount="0" stopTime="0.00" timeLoss="21.90" rerouteNo="0" devices="tripinfo_SN_45" vType="car" speedFactor="1.16" vaporized=""/>
    <tripinfo id="EW_48" depart="48.00" departLane="4i_0" departPos="4.10" departSpeed="0.00" departDelay="0.00" arrival="129.00" arrivalLane="1o_0" arrivalPos="492.80" arrivalSpeed="10.26" duration="81.00" routeLength="990.53" waitingTime="0.00" waitingCount="0" stopTime="0.00" timeLoss="8.32" rerouteNo="0" devices="tripinfo_EW_48" vType="car" speedFactor="0.97" vaporized=""/>
    <tripinfo id="SN_43" depart="43.00" departLane="3i_0" departPos="4.10" departSpeed="0.00" departDelay="0.00" arrival="132.00" arrivalLane="4o_0" arrivalPos="492.80" arrivalSpeed="10.21" duration="89.00" routeLength="995.90" waitingTime="1.00" waitingCount="1" stopTime="0.00" timeLoss="13.64" rerouteNo="0" devices="tripinfo_SN_43" vType="car" speedFactor="0.94" vaporized=""/>
    <tripinfo id="SN_47" depart="49.00" departLane="3i_0" departPos="4.10" departSpeed="0.00" departDelay="2.00" arrival="132.00" arrivalLane="2o_0" arrivalPos="492.80" arrivalSpeed="10.03" duration="83.00" routeLength="990.53" waitingTime="0.00" waitingCount="0" stopTime="0.00" timeLoss="13.35" rerouteNo="0" devices="tripinfo_SN_47" vType="car" speedFactor="1.01" vaporized=""/>
    <tripinfo id="WE_47" depart="47.00" departLane="1i_0" departPos="4.10" departSpeed="0.00" departDelay="0.00" arrival="134.00" arrivalLane="4o_0" arrivalPos="492.80" arrivalSpeed="10.24" duration="87.00" routeLength="995.70" waitingTime="5.00" waitingCount="1" stopTime="0.00" timeLoss="17.50" rerouteNo="0" devices="tripinfo_WE_47" vType="car" speedFactor="1.02" vaporized=""/>
    <tripinfo id="WE_49" depart="51.00" departLane="1i_0" departPos="10.10" departSpeed="0.00" departDelay="2.00" arrival="138.00" arrivalLane="3o_0" arrivalPos="492.80" arrivalSpeed="10.39" duration="87.00" routeLength="984.53" waitingTime="0.00" waitingCount="0" stopTime="0.00" timeLoss="12.54" rerouteNo="0" devices="tripinfo_WE_49" vType="truck" speedFactor="0.94" vaporized=""/>
    <tripinfo id="WE_61" depart="61.00" departLane="1i_0" departPos="4.10" departSpeed="0.00" departDelay="0.00" arrival="149.00" arrivalLane="3o_0" arrivalPos="492.80" arrivalSpeed="9.95" duration="88.00" routeLength="990.53" waitingTime="0.00" waitingCount="0" stopTime="0.00" timeLoss="10.95" rerouteNo="0" devices="tripinfo_WE_61" vType="car" speedFactor="0.92" vaporized=""/>
    <tripinfo id="WE_58" depart="58.00" departLane="1i_0" departPos="4.10" departSpeed="0.00" departDelay="0.00" arrival="150.00" arrivalLane="2o_0" arrivalPos="492.80" arrivalSpeed="9.29" duration="92.00" routeLength="995.90" waitingTime="0.00" waitingCount="0" stopTime="0.00" timeLoss="10.38" rerouteNo="0" devices="tripinfo_WE_58" vType="car" speedFactor="0.87" vaporized=""/>
    <tripinfo id="SN_51" depart="52.00" departLane="3i_0" departPos="4.10" departSpeed="0.00" departDelay="1.00" arrival="151.00" arrivalLane="4o_0" arrivalPos="492.80" arrivalSpeed="8.44" duration="99.00" routeLength="995.90" waitingTime="1.00" waitingCount="1" stopTime="0.00" timeLoss="13.23" rerouteNo="0" devices="tripinfo_SN_51" vType="car" speedFactor="0.83" vaporized=""/>
    <tripinfo id="EW_63" depart="63.00" departLane="4i_0" departPos="4.10" departSpeed="0.00" departDelay="0.00" arrival="151.00" arrivalLane="2o_0" arrivalPos="492.80" arrivalSpeed="9.27" duration="88.00" routeLength="995.70" waitingTime="1.00" waitingCount="1" stopTime="0.00" timeLoss="13.67" rerouteNo="0" devices="tripinfo_EW_63" vType="car" speedFactor="0.95" vaporized=""/>
    <tripinfo id="EW_67" depart="67.00" departLane="4i_0" departPos="4.10" departSpeed="0.00" departDelay="0.00" arrival="151.00" arrivalLane="3o_0" arrivalPos="492.80" arrivalSpeed="12.04" duration="84.00" routeLength="995.90" waitingTime="0.00" waitingCount="0" stopTime="0.00" timeLoss="20.84" rerouteNo="0" devices="tripinfo_EW_67" vType="car" speedFactor="1.13" vaporized=""/>
    <tripinfo id="EW_70" depart="70.00" departLane="4i_0" departPos="4.10" departSpeed="0.00" departDelay="0.00" arrival="152.00" arrivalLane="3o_0" arrivalPos="492.80" arrivalSpeed="11.82" duration="82.00" routeLength="995.90" waitingTime="0.00" waitingCount="0" stopTime="0.00" timeLoss="20.79" rerouteNo="0" devices="tripinfo_EW_70" vType="car" speedFactor="1.15" vaporized=""/>
    <tripinfo id="NS_69" depart="69.00" departLane="2i_0" departPos="4.10" departSpeed="0.00" departDelay="0.00" arrival="153.00" arrivalLane="4o_0" arrivalPos="492.80" arrivalSpeed="12.84" duration="84.00" routeLength="990.53" waitingTime="0.00" waitingCount="0" stopTime="0.00" timeLoss="23.60" rerouteNo="0" devices="tripinfo_NS_69" vType="car" speedFactor="1.18" vaporized=""/>
    <tripinfo id="WE_69" depart="69.00" departLane="1i_0" departPos="4.10" departSpeed="0.00" departDelay="0.00" arrival="161.00" arrivalLane="3o_0" arrivalPos="492.80" arrivalSpeed="9.21" duration="92.00" routeLength="990.53" waitingTime="2.00" waitingCount="1" stopTime="0.00" timeLoss="15.99" rerouteNo="0" devices="tripinfo_WE_69" vType="car" speedFactor="0.93" vaporized=""/>
    <tripinfo id="WE_91" depart="91.00" departLane="1i_0" departPos="4.10" departSpeed="0.00" departDelay="0.00" arrival="169.00" arrivalLane="3o_0" arrivalPos="492.80" arrivalSpeed="10.90" duration="78.00" routeLength="990.53" waitingTime="0.00" waitingCount="0" stopTime="0.00" timeLoss="8.18" rerouteNo="0" devices="tripinfo_WE_91" vType="car" speedFactor="1.01" vaporized=""/>
    <tripinfo id="NS_93" depart="93.00" departLane="2i_0" departPos="4.10" departSpeed="0.00" departDelay="0.00" arrival="171.00" arrivalLane="3o_0" arrivalPos="492.80" arrivalSpeed="12.30" duration="78.00" routeLength="995.70" waitingTime="0.00" waitingCount="0" stopTime="0.00" timeLoss="17.26" rerouteNo="0" devices="tripinfo_NS_93" vType="car" speedFactor="1.17" vaporized=""/>
    <tripinfo id="WE_99" depart="99.00" departLane="1i_0" departPos="4.10" departSpeed="0.00" departDelay="0.00" arrival="177.00" arrivalLane="2o_0" arrivalPos="492.80" arrivalSpeed="10.68" duration="78.00" routeLength="995.90" waitingTime="0.00" waitingCount="0" stopTime="0.00" timeLoss="8.33" rerouteNo="0" devices="tripinfo_WE_99" vType="car" speedFactor="1.02" vaporized=""/>
    <tripinfo id="SN_98" depart="98.00" departLane="3i_0" departPos="4.10" departSpeed="0.00" departDelay="0.00" arrival="183.00" arrivalLane="4o_0" arrivalPos="492.80" arrivalSpeed="10.37" duration="85.00" routeLength="995.90" waitingTime="1.00" waitingCount="1" stopTime="0.00" timeLoss="13.51" rerouteNo="0" devices="tripinfo_SN_98" vType="car" speedFactor="0.99" vaporized=""/>
    <tripinfo id="WE_104" depart="104.00" departLane="1i_0" departPos="4.10" departSpeed="0.00" departDelay="0.00" arrival="185.00" arrivalLane="4o_0" arrivalPos="492.80" arrivalSpeed="11.76" duration="81.00" routeLength="995.70" waitingTime="0.00" waitingCount="0" stopTime="0.00" timeLoss="16.02" rerouteNo="0" devices="tripinfo_WE_104" vType="car" speedFactor="1.10" vaporized=""/>
    <tripinfo id="EW_100" depart="100.00" departLane="4i_0" departPos="4.10" departSpeed="0.00" departDelay="0.00" arrival="186.00" arrivalLane="2o_0" arrivalPos="492.80" arrivalSpeed="10.01" duration="86.00" routeLength="995.70" waitingTime="0.00" waitingCount="0" stopTime="0.00" timeLoss="13.37" rerouteNo="0" devices="tripinfo_EW_100" vType="car" speedFactor="0.97" vaporized=""/>
    <tripinfo id="SN_105" depart="105.00" departLane="3i_0" departPos="4.10" departSpeed="0.00" departDelay="0.00" arrival="193.00" arrivalLane="2o_0" arrivalPos="492.80" arrivalSpeed="9.78" duration="88.00" routeLength="990.53" waitingTime="0.00" waitingCount="0" stopTime="0.00" timeLoss="9.58" rerouteNo="0" devices="tripinfo_SN_105" vType="car" speedFactor="0.90" vaporized=""/>
    <tripinfo id="WE_111" depart="111.00" departLane="1i_0" departPos="4.10" departSpeed="0.00" departDelay="0.00" arrival="193.00" arrivalLane="4o_0" arrivalPos="492.80" arrivalSpeed="11.73" duration="82.00" routeLength="995.70" waitingTime="0.00" waitingCount="0" stopTime="0.00" timeLoss="16.84" rerouteNo="0" devices="tripinfo_WE_111" vType="car" speedFactor="1.09" vaporized=""/>
    <tripinfo id="SN_108" depart="108.00" departLane="3i_0" departPos="4.10" departSpeed="0.00" departDelay="0.00" arrival="195.00" arrivalLane="2o_0" arrivalPos="492.80" arrivalSpeed="9.86" duration="87.00" routeLength="990.53" waitingTime="0.00" waitingCount="0" stopTime="0.00" timeLoss="13.12" rerouteNo="0" devices="tripinfo_SN_108" vType="car" speedFactor="0.96" vaporized=""/>
    <tripinfo id="EW_117" depart="118.00" departLane="4i_0" departPos="4.10" departSpeed="0.00" departDelay="1.00" arrival="195.00" arrivalLane="1o_0" arrivalPos="492.80" arrivalSpeed="10.97" duration="77.00" routeLength="990.53" waitingTime="0.00" waitingCount="0" stopTime="0.00" timeLoss="8.66" rerouteNo="0" devices="tripinfo_EW_117" vType="car" speedFactor="1.04" vaporized=""/>
    <tripinfo id="EW_101" depart="102.00" departLane="4i_0" departPos="4.10" departSpeed="0.00" departDelay="1.00" arrival="197.00" arrivalLane="2o_0" arrivalPos="492.80" arrivalSpeed="12.26" duration="95.00" routeLength="995.70" waitingTime="1.00" waitingCount="1" stopTime="0.00" timeLoss="34.52" rerouteNo="0" devices="tripinfo_EW_101" vType="car" speedFactor="1.18" vaporized=""/>
    <tripinfo id="WE_108" depart="108.00" departLane="1i_0" departPos="4.10" departSpeed="0.00" departDelay="0.00" arrival="199.00" arrivalLane="2o_0" arrivalPos="492.80" arrivalSpeed="10.38" duration="91.00" routeLength="995.90" waitingTime="2.00" waitingCount="2" stopTime="0.00" timeLoss="21.90" rerouteNo="0" devices="tripinfo_WE_108" vType="car" speedFactor="1.03" vaporized=""/>
    <tripinfo id="EW_123" depart="123.00" departLane="4i_0" departPos="4.10" departSpeed="0.00" departDelay="0.00" arrival="200.00" arrivalLane="2o_0" arrivalPos="492.80" arrivalSpeed="12.02" duration="77.00" routeLength="995.70" waitingTime="2.00" waitingCount="1" stopTime="0.00" timeLoss="16.62" rerouteNo="0" devices="tripinfo_EW_123" vType="car" speedFactor="1.17" vaporized=""/>
    <tripinfo id="NS_119" depart="119.00" departLane="2i_0" departPos="4.10" departSpeed="0.00" departDelay="0.00" arrival="206.00" arrivalLane="1o_0" arrivalPos="492.80" arrivalSpeed="8.75" duration="87.00" routeLength="995.90" waitingTime="0.00" waitingCount="0" stopTime="0.00" timeLoss="8.49" rerouteNo="0" devices="tripinfo_NS_119" vType="car" speedFactor="0.90" vaporized=""/>
    <tripinfo id="WE_118" depart="118.00" departLane="1i_0" departPos="4.10" departSpeed="0.00" departDelay="0.00" arrival="212.00" arrivalLane="4o_0" arrivalPos="492.80" arrivalSpeed="10.54" duration="94.00" routeLength="995.70" waitingTime="8.00" waitingCount="1" stopTime="0.00" timeLoss="22.96" rerouteNo="0" devices="tripinfo_WE_118" vType="car" speedFactor="1.00" vaporized=""/>
    <tripinfo id="NS_120" depart="122.00" departLane="2i_0" departPos="4.10" departSpeed="0.00" departDelay="2.00" arrival="212.00" arrivalLane="1o_0" arrivalPos="492.80" arrivalSpeed="9.32" duration="90.00" routeLength="995.90" waitingTime="0.00" waitingCount="0" stopTime="0.00" timeLoss="8.71" rerouteNo="0" devices="tripinfo_NS_120" vType="car" speedFactor="0.88" vaporized=""/>
    <tripinfo id="NS_122" depart="125.00" departLane="2i_0" departPos="4.10" departSpeed="0.00" departDelay="3.00" arrival="218.00" arrivalLane="3o_0" arrivalPos="492.80" arrivalSpeed="8.75" duration="93.00" routeLength="995.70" waitingTime="0.00" waitingCount="0" stopTime="0.00" timeLoss="9.88" rerouteNo="0" devices="tripinfo_NS_122" vType="car" speedFactor="0.85" vaporized=""/>
    <tripinfo id="NS_134" depart="134.00" departLane="2i_0" departPos="4.10" departSpeed="0.00" departDelay="0.00" arrival="220.00" arrivalLane="3o_0" arrivalPos="492.80" arrivalSpeed="10.56" duration="86.00" routeLength="995.70" waitingTime="0.00" waitingCount="0" stopTime="0.00" timeLoss="14.19" rerouteNo="0" devices="tripinfo_NS_134" vType="car" speedFactor="1.00" vaporized=""/>
    <tripinfo id="WE_122" depart="122.00" departLane="1i_0" departPos="4.10" departSpeed="0.00" departDelay="0.00" arrival="226.00" arrivalLane="4o_0" arrivalPos="492.80" arrivalSpeed="8.78" duration="104.00" routeLength="995.70" waitingTime="3.00" waitingCount="2" stopTime="0.00" timeLoss="20.87" rerouteNo="0" devices="tripinfo_WE_122" vType="car" speedFactor="0.85" vaporized=""/>
    <tripinfo id="NS_135" depart="136.00" departLane="2i_0" departPos="4.10" departSpeed="0.00" departDelay="1.00" arrival="227.00" arrivalLane="3o_0" arrivalPos="492.80" arrivalSpeed="8.80" duration="91.00" routeLength="995.70" waitingTime="0.00" waitingCount="0" stopTime="0.00" timeLoss="12.48" rerouteNo="0" devices="tripinfo_NS_135" vType="car" speedFactor="0.90" vaporized=""/>
    <tripinfo id="WE_125" depart="125.00" departLane="1i_0" departPos="4.10" departSpeed="0.00" departDelay="0.00" arrival="228.00" arrivalLane="4o_0" arrivalPos="492.80" arrivalSpeed="11.19" duration="103.00" routeLength="995.70" waitingTime="2.00" waitingCount="1" stopTime="0.00" timeLoss="33.17" rerouteNo="0" devices="tripinfo_WE_125" vType="car" speedFactor="1.02" vaporized=""/>
    <tripinfo id="WE_126" depart="129.00" departLane="1i_0" departPos="4.10" departSpeed="0.00" departDelay="3.00" arrival="229.00" arrivalLane="3o_0" arrivalPos="492.80" arrivalSpeed="11.86" duration="100.00" routeLength="990.53" waitingTime="1.00" waitingCount="1" stopTime="0.00" timeLoss="35.41" rerouteNo="0" devices="tripinfo_WE_126" vType="car" speedFactor="1.10" vaporized=""/>
    <tripinfo id="NS_147" depart="147.00" departLane="2i_0" departPos="4.10" departSpeed="0.00" departDelay="0.00" arrival="229.00" arrivalLane="1o_0" arrivalPos="492.80" arrivalSpeed="9.72" duration="82.00" routeLength="995.90" waitingTime="0.00" waitingCount="0" stopTime="0.00" timeLoss="8.51" rerouteNo="0" devices="tripinfo_NS_147" vType="car" speedFactor="0.97" vaporized=""/>
    <tripinfo id="WE_144" depart="144.00" departLane="1i_0" departPos="4.10" departSpeed="0.00" departDelay="0.00" arrival="230.00" arrivalLane="4o_0" arrivalPos="492.80" arrivalSpeed="11.09" duration="86.00" routeLength="995.70" waitingTime="0.00" waitingCount="0" stopTime="0.00" timeLoss="16.39" rerouteNo="0" devices="tripinfo_WE_144" vType="car" speedFactor="1.02" vaporized=""/>
    <tripinfo id="WE_130" depart="132.00" departLane="1i_0" departPos="4.10" departSpeed="0.00" departDelay="2.00" arrival="231.00" arrivalLane="3o_0" arrivalPos="492.80" arrivalSpeed="10.13" duration="99.00" routeLength="990.53" waitingTime="0.00" waitingCount="0" stopTime="0.00" timeLoss="28.41" rerouteNo="0" devices="tripinfo_WE_130" vType="car" speedFactor="1.00" vaporized=""/>
    <tripinfo id="WE_152" depart="152.00" departLane="1i_0" departPos="4.10" departSpeed="0.00" departDelay="0.00" arrival="233.00" arrivalLane="3o_0" arrivalPos="492.80" arrivalSpeed="11.18" duration="81.00" routeLength="990.53" waitingTime="0.00" waitingCount="0" stopTime="0.00" timeLoss="17.50" rerouteNo="0" devices="tripinfo_WE_152" vType="car" speedFactor="1.12" vaporized=""/>
    <tripinfo id="WE_153" depart="155.00" departLane="1i_0" departPos="4.10" departSpeed="0.00" departDelay="2.00" arrival="236.00" arrivalLane="4o_0" arrivalPos="492.80" arrivalSpeed="10.85" duration="81.00" routeLength="995.70" waitingTime="0.00" waitingCount="0" stopTime="0.00" timeLoss="10.86" rerouteNo="0" devices="tripinfo_WE_153" vType="car" speedFactor="1.02" vaporized=""/>
    <tripinfo id="WE_155" depart="158.00" departLane="1i_0" departPos="4.10" departSpeed="0.00" departDelay="3.00" arrival="243.00" arrivalLane="4o_0" arrivalPos="492.80" arrivalSpeed="10.77" duration="85.00" routeLength="995.70" waitingTime="0.00" waitingCount="0" stopTime="0.00" timeLoss="12.81" rerouteNo="0" devices="tripinfo_WE_155" vType="car" speedFactor="0.99" vaporized=""/>
    <tripinfo id="WE_160" depart="162.00" departLane="1i_0" departPos="10.10" departSpeed="0.00" departDelay="2.00" arrival="244.00" arrivalLane="2o_0" arrivalPos="492.80" arrivalSpeed="10.98" duration="82.00" routeLength="989.90" waitingTime="0.00" waitingCount="0" stopTime="0.00" timeLoss="12.72" rerouteNo="0" devices="tripinfo_WE_160" vType="truck" speedFactor="1.02" vaporized=""/>
    <tripinfo id="NS_157" depart="157.00" departLane="2i_0" departPos="4.10" departSpeed="0.00" departDelay="0.00" arrival="245.00" arrivalLane="3o_0" arrivalPos="492.80" arrivalSpeed="9.26" duration="88.00" routeLength="995.70" waitingTime="0.00" waitingCount="0" stopTime="0.00" timeLoss="10.60" rerouteNo="0" devices="tripinfo_NS_157" vType="car" speedFactor="0.91" vaporized=""/>
    <tripinfo id="EW_149" depart="149.00" departLane="4i_0" departPos="4.10" departSpeed="0.00" departDelay="0.00" arrival="250.00" arrivalLane="1o_0" arrivalPos="492.80" arrivalSpeed="11.86" duration="101.00" routeLength="990.53" waitingTime="22.00" waitingCount="1" stopTime="0.00" timeLoss="35.60" rerouteNo="0" devices="tripinfo_EW_149" vType="car" speedFactor="1.08" vaporized=""/>
    <tripinfo id="SN_116" depart="116.00" departLane="3i_0" departPos="10.10" departSpeed="0.00" departDelay="0.00" arrival="255.00" arrivalLane="4o_0" arrivalPos="492.80" arrivalSpeed="10.99" duration="139.00" routeLength="989.90" waitingTime="45.00" waitingCount="3" stopTime="0.00" timeLoss="70.13" rerouteNo="0" devices="tripinfo_SN_116" vType="truck" speedFactor="1.02" vaporized=""/>
    <tripinfo id="EW_155" depart="155.00" departLane="4i_0" departPos="4.10" departSpeed="0.00" departDelay="0.00" arrival="260.00" arrivalLane="1o_0" arrivalPos="492.80" arrivalSpeed="9.98" duration="105.00" routeLength="990.53" waitingTime="13.00" waitingCount="1" stopTime="0.00" timeLoss="29.89" rerouteNo="0" devices="tripinfo_EW_155" vType="car" speedFactor="0.94" vaporized=""/>
    <tripinfo id="WE_174" depart="174.00" departLane="1i_0" departPos="4.10" departSpeed="0.00" departDelay="0.00" arrival="261.00" arrivalLane="4o_0" arrivalPos="492.80" arrivalSpeed="10.62" duration="87.00" routeLength="995.70" waitingTime="0.00" waitingCount="0" stopTime="0.00" timeLoss="14.30" rerouteNo="0" devices="tripinfo_WE_174" vType="car" speedFactor="0.97" vaporized=""/>
    <tripinfo id="SN_117" depart="120.00" departLane="3i_0" departPos="4.10" departSpeed="0.00" departDelay="3.00" arrival="262.00" arrivalLane="1o_0" arrivalPos="492.80" arrivalSpeed="10.97" duration="142.00" routeLength="995.70" waitingTime="47.00" waitingCount="3" stopTime="0.00" timeLoss="76.59" rerouteNo="0" devices="tripinfo_SN_117" vType="car" speedFactor="1.09" vaporized=""/>
    <tripinfo id="NS_176" depart="177.00" departLane="2i_0" departPos="4.10" departSpeed="0.00" departDelay="1.00" arrival="263.00" arrivalLane="4o_0" arrivalPos="492.80" arrivalSpeed="10.78" duration="86.00" routeLength="990.53" waitingTime="2.00" waitingCount="2" stopTime="0.00" timeLoss="19.21" rerouteNo="0" devices="tripinfo_NS_176" vType="car" speedFactor="1.06" vaporized=""/>
    <tripinfo id="WE_177" depart="177.00" departLane="1i_0" departPos="4.10" departSpeed="0.00" departDelay="0.00" arrival="264.00" arrivalLane="3o_0" arrivalPos="492.80" arrivalSpeed="10.05" duration="87.00" routeLength="990.53" waitingTime="0.00" waitingCount="0" stopTime="0.00" timeLoss="13.23" rerouteNo="0" devices="tripinfo_WE_177" vType="car" speedFactor="0.96" vaporized=""/>
    <tripinfo id="WE_185" depart="187.00" departLane="1i_0" departPos="4.10" departSpeed="0.00" departDelay="2.00" arrival="267.00" arrivalLane="3o_0" arrivalPos="492.80" arrivalSpeed="11.53" duration="80.00" routeLength="990.53" waitingTime="0.00" waitingCount="0" stopTime="0.00" timeLoss="15.42" rerouteNo="0" devices="tripinfo_WE_185" vType="car" speedFactor="1.09" vaporized=""/>
    <tripinfo id="EW_156" depart="158.00" departLane="4i_0" departPos="4.10" departSpeed="0.00" departDelay="2.00" arrival="269.00" arrivalLane="2o_0" arrivalPos="492.80" arrivalSpeed="9.34" duration="111.00" routeLength="995.70" waitingTime="11.00" waitingCount="1" stopTime="0.00" timeLoss="30.49" rerouteNo="0" devices="tripinfo_EW_156" vType="car" speedFactor="0.88" vaporized=""/>
    <tripinfo id="EW_165" depart="165.00" departLane="4i_0" departPos="10.10" departSpeed="0.00" departDelay="0.00" arrival="271.00" arrivalLane="2o_0" arrivalPos="492.80" arrivalSpeed="10.32" duration="106.00" routeLength="989.70" waitingTime="1.00" waitingCount="1" stopTime="0.00" timeLoss="36.43" rerouteNo="0" devices="tripinfo_EW_165" vType="truck" speedFactor="1.01" vaporized=""/>
    <tripinfo id="WE_184" depart="184.00" departLane="1i_0" departPos="4.10" departSpeed="0.00" departDelay="0.00" arrival="274.00" arrivalLane="2o_0" arrivalPos="492.80" arrivalSpeed="10.97" duration="90.00" routeLength="995.90" waitingTime="1.00" waitingCount="1" stopTime="0.00" timeLoss="19.24" rerouteNo="0" devices="tripinfo_WE_184" vType="car" speedFactor="1.01" vaporized=""/>
    <tripinfo id="NS_183" depart="183.00" departLane="2i_0" departPos="4.10" departSpeed="0.00" departDelay="0.00" arrival="283.00" arrivalLane="3o_0" arrivalPos="492.80" arrivalSpeed="10.20" duration="100.00" routeLength="995.70" waitingTime="16.00" waitingCount="1" stopTime="0.00" timeLoss="31.43" rerouteNo="0" devices="tripinfo_NS_183" vType="car" speedFactor="1.03" vaporized=""/>
    <tripinfo id="NS_185" depart="186.00" departLane="2i_0" departPos="4.10" departSpeed="0.00" departDelay="1.00" arrival="285.00" arrivalLane="3o_0" arrivalPos="492.80" arrivalSpeed="11.16" duration="99.00" routeLength="995.70" waitingTime="15.00" waitingCount="1" stopTime="0.00" timeLoss="30.46" rerouteNo="0" devices="tripinfo_NS_185" vType="car" speedFactor="1.03" vaporized=""/>
    <tripinfo id="NS_186" depart="188.00" departLane="2i_0" departPos="4.10" departSpeed="0.00" departDelay="2.00" arrival="287.00" arrivalLane="4o_0" arrivalPos="492.80" arrivalSpeed="10.27" duration="99.00" routeLength="990.53" waitingTime="13.00" waitingCount="1" stopTime="0.00" timeLoss="29.25" rerouteNo="0" devices="tripinfo_NS_186" vType="car" speedFactor="1.02" vaporized=""/>