<?xml version="1.0" encoding="UTF-8"?>

<!-- generated on 2024-05-05 15:48:45 by Eclipse SUMO sumo Version 1.19.0
<configuration xmlns:xsi="http://www.w3.org/2001/XMLSchema-instance" xsi:noNamespaceSchemaLocation="http://sumo.dlr.de/xsd/sumoConfiguration.xsd">

    <input>
        <net-file value="twoone.net.xml"/>
        <route-files value="route_gen.rou.xml"/>
    </input>

    <output>
        <tripinfo-output value="tripinfo_epi36.xml"/>
    </output>

    <report>
        <no-warnings value="true"/>
    </report>

    <traci_server>
        <remote-port value="46433"/>
    </traci_server>

</configuration>
-->

<tripinfos xmlns:xsi="http://www.w3.org/2001/XMLSchema-instance" xsi:noNamespaceSchemaLocation="http://sumo.dlr.de/xsd/tripinfo_file.xsd">
    <tripinfo id="NS_0" depart="0.00" departLane="2i_0" departPos="4.10" departSpeed="0.00" departDelay="0.00" arrival="75.00" arrivalLane="1o_0" arrivalPos="492.80" arrivalSpeed="11.14" duration="75.00" routeLength="995.90" waitingTime="0.00" waitingCount="0" stopTime="0.00" timeLoss="8.17" rerouteNo="0" devices="tripinfo_NS_0" vType="car" speedFactor="1.06" vaporized=""/>
    <tripinfo id="EW_4" depart="4.00" departLane="4i_0" departPos="4.10" departSpeed="0.00" departDelay="0.00" arrival="83.00" arrivalLane="1o_0" arrivalPos="492.80" arrivalSpeed="11.12" duration="79.00" routeLength="990.53" waitingTime="0.00" waitingCount="0" stopTime="0.00" timeLoss="9.17" rerouteNo="0" devices="tripinfo_EW_4" vType="car" speedFactor="1.01" vaporized=""/>
    <tripinfo id="EW_17" depart="17.00" departLane="4i_0" departPos="4.10" departSpeed="0.00" departDelay="0.00" arrival="93.00" arrivalLane="2o_0" arrivalPos="492.80" arrivalSpeed="11.69" duration="76.00" routeLength="995.70" waitingTime="0.00" waitingCount="0" stopTime="0.00" timeLoss="10.73" rerouteNo="0" devices="tripinfo_EW_17" vType="car" speedFactor="1.08" vaporized=""/>
    <tripinfo id="NS_1" depart="3.00" departLane="2i_0" departPos="4.10" departSpeed="0.00" departDelay="2.00" arrival="98.00" arrivalLane="1o_0" arrivalPos="492.80" arrivalSpeed="9.73" duration="95.00" routeLength="995.90" waitingTime="7.00" waitingCount="1" stopTime="0.00" timeLoss="18.95" rerouteNo="0" devices="tripinfo_NS_1" vType="car" speedFactor="0.94" vaporized=""/>
    <tripinfo id="EW_20" depart="20.00" departLane="4i_0" departPos="4.10" departSpeed="0.00" departDelay="0.00" arrival="98.00" arrivalLane="3o_0" arrivalPos="492.80" arrivalSpeed="10.84" duration="78.00" routeLength="995.90" waitingTime="0.00" waitingCount="0" stopTime="0.00" timeLoss="8.78" rerouteNo="0" devices="tripinfo_EW_20" vType="car" speedFactor="1.03" vaporized=""/>
    <tripinfo id="WE_24" depart="24.00" departLane="1i_0" departPos="4.10" departSpeed="0.00" departDelay="0.00" arrival="101.00" arrivalLane="3o_0" arrivalPos="492.80" arrivalSpeed="10.92" duration="77.00" routeLength="990.53" waitingTime="0.00" waitingCount="0" stopTime="0.00" timeLoss="9.15" rerouteNo="0" devices="tripinfo_WE_24" vType="car" speedFactor="1.05" vaporized=""/>
    <tripinfo id="EW_25" depart="25.00" departLane="4i_0" departPos="4.10" departSpeed="0.00" departDelay="0.00" arrival="110.00" arrivalLane="3o_0" arrivalPos="492.80" arrivalSpeed="10.36" duration="85.00" routeLength="995.90" waitingTime="0.00" waitingCount="0" stopTime="0.00" timeLoss="8.73" rerouteNo="0" devices="tripinfo_EW_25" vType="car" speedFactor="0.94" vaporized=""/>
    <tripinfo id="SN_20" depart="20.00" departLane="3i_0" departPos="4.10" departSpeed="0.00" departDelay="0.00" arrival="120.00" arrivalLane="1o_0" arrivalPos="492.80" arrivalSpeed="8.81" duration="100.00" routeLength="995.70" waitingTime="1.00" waitingCount="1" stopTime="0.00" timeLoss="14.71" rerouteNo="0" devices="tripinfo_SN_20" vType="car" speedFactor="0.83" vaporized=""/>
    <tripinfo id="WE_37" depart="37.00" departLane="1i_0" departPos="10.10" departSpeed="0.00" departDelay="0.00" arrival="120.00" arrivalLane="2o_0" arrivalPos="492.80" arrivalSpeed="10.60" duration="83.00" routeLength="989.90" waitingTime="0.00" waitingCount="0" stopTime="0.00" timeLoss="11.95" rerouteNo="0" devices="tripinfo_WE_37" vType="truck" speedFactor="1.00" vaporized=""/>
    <tripinfo id="EW_29" depart="29.00" departLane="4i_0" departPos="4.10" departSpeed="0.00" departDelay="0.00" arrival="121.00" arrivalLane="3o_0" arrivalPos="492.80" arrivalSpeed="8.64" duration="92.00" routeLength="995.90" waitingTime="0.00" waitingCount="0" stopTime="0.00" timeLoss="9.55" rerouteNo="0" devices="tripinfo_EW_29" vType="car" speedFactor="0.86" vaporized=""/>
    <tripinfo id="SN_33" depart="33.00" departLane="3i_0" departPos="4.10" departSpeed="0.00" departDelay="0.00" arrival="122.00" arrivalLane="1o_0" arrivalPos="492.80" arrivalSpeed="11.05" duration="89.00" routeLength="995.70" waitingTime="0.00" waitingCount="0" stopTime="0.00" timeLoss="20.88" rerouteNo="0" devices="tripinfo_SN_33" vType="car" speedFactor="1.05" vaporized=""/>
    <tripinfo id="NS_24" depart="24.00" departLane="2i_0" departPos="4.10" departSpeed="0.00" departDelay="0.00" arrival="124.00" arrivalLane="1o_0" arrivalPos="492.80" arrivalSpeed="9.48" duration="100.00" routeLength="995.90" waitingTime="6.00" waitingCount="1" stopTime="0.00" timeLoss="19.61" rerouteNo="0" devices="tripinfo_NS_24" vType="car" speedFactor="0.89" vaporized=""/>
    <tripinfo id="NS_31" depart="31.00" departLane="2i_0" departPos="10.10" departSpeed="0.00" departDelay="0.00" arrival="126.00" arrivalLane="1o_0" arrivalPos="492.80" arrivalSpeed="11.21" duration="95.00" routeLength="989.90" waitingTime="0.00" waitingCount="0" stopTime="0.00" timeLoss="27.07" rerouteNo="0" devices="tripinfo_NS_31" vType="truck" speedFactor="1.05" vaporized=""/>
    <tripinfo id="NS_32" depart="35.00" departLane="2i_0" departPos="4.10" departSpeed="0.00" departDelay="3.00" arrival="127.00" arrivalLane="4o_0" arrivalPos="492.80" arrivalSpeed="10.95" duration="92.00" routeLength="990.53" waitingTime="3.00" waitingCount="1" stopTime="0.00" timeLoss="23.21" rerouteNo="0" devices="tripinfo_NS_32" vType="car" speedFactor="1.03" vaporized=""/>
    <tripinfo id="WE_44" depart="44.00" departLane="1i_0" departPos="4.10" departSpeed="0.00" departDelay="0.00" arrival="129.00" arrivalLane="3o_0" arrivalPos="492.80" arrivalSpeed="9.57" duration="85.00" routeLength="990.53" waitingTime="0.00" waitingCount="0" stopTime="0.00" timeLoss="10.03" rerouteNo="0" devices="tripinfo_WE_44" vType="car" speedFactor="0.94" vaporized=""/>
    <tripinfo id="EW_44" depart="44.00" departLane="4i_0" departPos="4.10" departSpeed="0.00" departDelay="0.00" arrival="129.00" arrivalLane="1o_0" arrivalPos="492.80" arrivalSpeed="10.32" duration="85.00" routeLength="990.53" waitingTime="0.00" waitingCount="0" stopTime="0.00" timeLoss="9.36" rerouteNo="0" devices="tripinfo_EW_44" vType="car" speedFactor="0.94" vaporized=""/>
    <tripinfo id="SN_37" depart="37.00" departLane="3i_0" departPos="4.10" departSpeed="0.00" departDelay="0.00" arrival="131.00" arrivalLane="1o_0" arrivalPos="492.80" arrivalSpeed="9.41" duration="94.00" routeLength="995.70" waitingTime="4.00" waitingCount="1" stopTime="0.00" timeLoss="17.87" rerouteNo="0" devices="tripinfo_SN_37" vType="car" speedFactor="0.93" vaporized=""/>
    <tripinfo id="EW_48" depart="48.00" departLane="4i_0" departPos="10.10" departSpeed="0.00" departDelay="0.00" arrival="132.00" arrivalLane="2o_0" arrivalPos="492.80" arrivalSpeed="11.84" duration="84.00" routeLength="989.70" waitingTime="0.00" waitingCount="0" stopTime="0.00" timeLoss="17.67" rerouteNo="0" devices="tripinfo_EW_48" vType="truck" speedFactor="1.08" vaporized=""/>
    <tripinfo id="SN_49" depart="49.00" departLane="3i_0" departPos="4.10" departSpeed="0.00" departDelay="0.00" arrival="133.00" arrivalLane="1o_0" arrivalPos="492.80" arrivalSpeed="11.23" duration="84.00" routeLength="995.70" waitingTime="1.00" waitingCount="1" stopTime="0.00" timeLoss="14.34" rerouteNo="0" devices="tripinfo_SN_49" vType="car" speedFactor="1.02" vaporized=""/>
    <tripinfo id="SN_56" depart="56.00" departLane="3i_0" departPos="4.10" departSpeed="0.00" departDelay="0.00" arrival="139.00" arrivalLane="1o_0" arrivalPos="492.80" arrivalSpeed="10.82" duration="83.00" routeLength="995.70" waitingTime="0.00" waitingCount="0" stopTime="0.00" timeLoss="10.53" rerouteNo="0" devices="tripinfo_SN_56" vType="car" speedFactor="0.97" vaporized=""/>
    <tripinfo id="EW_51" depart="52.00" departLane="4i_0" departPos="4.10" departSpeed="0.00" departDelay="1.00" arrival="141.00" arrivalLane="2o_0" arrivalPos="492.80" arrivalSpeed="10.53" duration="89.00" routeLength="995.70" waitingTime="0.00" waitingCount="0" stopTime="0.00" timeLoss="18.37" rerouteNo="0" devices="tripinfo_EW_51" vType="car" speedFactor="1.01" vaporized=""/>
    <tripinfo id="WE_64" depart="64.00" departLane="1i_0" departPos="4.10" departSpeed="0.00" departDelay="0.00" arrival="151.00" arrivalLane="3o_0" arrivalPos="492.80" arrivalSpeed="9.08" duration="87.00" routeLength="990.53" waitingTime="0.00" waitingCount="0" stopTime="0.00" timeLoss="9.81" rerouteNo="0" devices="tripinfo_WE_64" vType="car" speedFactor="0.92" vaporized=""/>
    <tripinfo id="NS_36" depart="38.00" departLane="2i_0" departPos="4.10" departSpeed="0.00" departDelay="2.00" arrival="152.00" arrivalLane="3o_0" arrivalPos="492.80" arrivalSpeed="11.24" duration="114.00" routeLength="995.70" waitingTime="16.00" waitingCount="3" stopTime="0.00" timeLoss="51.18" rerouteNo="0" devices="tripinfo_NS_36" vType="car" speedFactor="1.12" vaporized=""/>
    <tripinfo id="SN_60" depart="60.00" departLane="3i_0" departPos="4.10" departSpeed="0.00" departDelay="0.00" arrival="153.00" arrivalLane="4o_0" arrivalPos="492.80" arrivalSpeed="8.62" duration="93.00" routeLength="995.90" waitingTime="0.00" waitingCount="0" stopTime="0.00" timeLoss="11.81" rerouteNo="0" devices="tripinfo_SN_60" vType="car" speedFactor="0.87" vaporized=""/>
    <tripinfo id="WE_58" depart="58.00" departLane="1i_0" departPos="4.10" departSpeed="0.00" departDelay="0.00" arrival="154.00" arrivalLane="2o_0" arrivalPos="492.80" arrivalSpeed="8.84" duration="96.00" routeLength="995.90" waitingTime="0.00" waitingCount="0" stopTime="0.00" timeLoss="10.12" rerouteNo="0" devices="tripinfo_WE_58" vType="car" speedFactor="0.83" vaporized=""/>
    <tripinfo id="NS_40" depart="41.00" departLane="2i_0" departPos="4.10" departSpeed="0.00" departDelay="1.00" arrival="156.00" arrivalLane="4o_0" arrivalPos="492.80" arrivalSpeed="9.52" duration="115.00" routeLength="990.53" waitingTime="14.00" waitingCount="2" stopTime="0.00" timeLoss="34.59" rerouteNo="0" devices="tripinfo_NS_40" vType="car" speedFactor="0.88" vaporized=""/>
    <tripinfo id="EW_57" depart="57.00" departLane="4i_0" departPos="4.10" departSpeed="0.00" departDelay="0.00" arrival="156.00" arrivalLane="2o_0" arrivalPos="492.80" arrivalSpeed="8.84" duration="99.00" routeLength="995.70" waitingTime="0.00" waitingCount="0" stopTime="0.00" timeLoss="19.22" rerouteNo="0" devices="tripinfo_EW_57" vType="car" speedFactor="0.89" vaporized=""/>
    <tripinfo id="EW_70" depart="70.00" departLane="4i_0" departPos="10.10" departSpeed="0.00" departDelay="0.00" arrival="157.00" arrivalLane="3o_0" arrivalPos="492.80" arrivalSpeed="10.18" duration="87.00" routeLength="989.90" waitingTime="0.00" waitingCount="0" stopTime="0.00" timeLoss="14.14" rerouteNo="0" devices="tripinfo_EW_70" vType="truck" speedFactor="0.97" vaporized=""/>
    <tripinfo id="EW_72" depart="74.00" departLane="4i_0" departPos="4.10" departSpeed="0.00" departDelay="2.00" arrival="157.00" arrivalLane="1o_0" arrivalPos="492.80" arrivalSpeed="12.19" duration="83.00" routeLength="990.53" waitingTime="1.00" waitingCount="1" stopTime="0.00" timeLoss="22.57" rerouteNo="0" devices="tripinfo_EW_72" vType="car" speedFactor="1.18" vaporized=""/>
    <tripinfo id="SN_66" depart="66.00" departLane="3i_0" departPos="4.10" departSpeed="0.00" departDelay="0.00" arrival="158.00" arrivalLane="2o_0" arrivalPos="492.80" arrivalSpeed="10.03" duration="92.00" routeLength="990.53" waitingTime="0.00" waitingCount="0" stopTime="0.00" timeLoss="17.25" rerouteNo="0" devices="tripinfo_SN_66" vType="car" speedFactor="0.95" vaporized=""/>
    <tripinfo id="WE_69" depart="69.00" departLane="1i_0" departPos="4.10" departSpeed="0.00" departDelay="0.00" arrival="158.00" arrivalLane="4o_0" arrivalPos="492.80" arrivalSpeed="11.83" duration="89.00" routeLength="995.70" waitingTime="0.00" waitingCount="0" stopTime="0.00" timeLoss="25.87" rerouteNo="0" devices="tripinfo_WE_69" vType="car" speedFactor="1.13" vaporized=""/>
    <tripinfo id="SN_73" depart="73.00" departLane="3i_0" departPos="4.10" departSpeed="0.00" departDelay="0.00" arrival="159.00" arrivalLane="4o_0" arrivalPos="492.80" arrivalSpeed="11.93" duration="86.00" routeLength="995.90" waitingTime="0.00" waitingCount="0" stopTime="0.00" timeLoss="24.70" rerouteNo="0" devices="tripinfo_SN_73" vType="car" speedFactor="1.15" vaporized=""/>
    <tripinfo id="NS_84" depart="84.00" departLane="2i_0" departPos="4.10" departSpeed="0.00" departDelay="0.00" arrival="165.00" arrivalLane="1o_0" arrivalPos="492.80" arrivalSpeed="9.88" duration="81.00" routeLength="995.90" waitingTime="0.00" waitingCount="0" stopTime="0.00" timeLoss="10.72" rerouteNo="0" devices="tripinfo_NS_84" vType="car" speedFactor="1.01" vaporized=""/>
    <tripinfo id="NS_86" depart="86.00" departLane="2i_0" departPos="4.10" departSpeed="0.00" departDelay="0.00" arrival="169.00" arrivalLane="1o_0" arrivalPos="492.80" arrivalSpeed="10.77" duration="83.00" routeLength="995.90" waitingTime="1.00" waitingCount="1" stopTime="0.00" timeLoss="11.45" rerouteNo="0" devices="tripinfo_NS_86" vType="car" speedFactor="0.99" vaporized=""/>
    <tripinfo id="WE_85" depart="85.00" departLane="1i_0" departPos="10.10" departSpeed="0.00" departDelay="0.00" arrival="173.00" arrivalLane="2o_0" arrivalPos="492.80" arrivalSpeed="11.80" duration="88.00" routeLength="989.90" waitingTime="2.00" waitingCount="1" stopTime="0.00" timeLoss="21.17" rerouteNo="0" devices="tripinfo_WE_85" vType="truck" speedFactor="1.09" vaporized=""/>
    <tripinfo id="NS_108" depart="108.00" departLane="2i_0" departPos="4.10" departSpeed="0.00" departDelay="0.00" arrival="178.00" arrivalLane="4o_0" arrivalPos="492.80" arrivalSpeed="12.26" duration="70.00" routeLength="990.53" waitingTime="0.00" waitingCount="0" stopTime="0.00" timeLoss="9.78" rerouteNo="0" devices="tripinfo_NS_108" vType="car" speedFactor="1.18" vaporized=""/>
    <tripinfo id="NS_89" depart="89.00" departLane="2i_0" departPos="4.10" departSpeed="0.00" departDelay="0.00" arrival="179.00" arrivalLane="3o_0" arrivalPos="492.80" arrivalSpeed="10.32" duration="90.00" routeLength="995.70" waitingTime="5.00" waitingCount="1" stopTime="0.00" timeLoss="20.45" rerouteNo="0" devices="tripinfo_NS_89" vType="car" speedFactor="1.02" vaporized=""/>
    <tripinfo id="SN_98" depart="98.00" departLane="3i_0" departPos="4.10" departSpeed="0.00" departDelay="0.00" arrival="184.00" arrivalLane="1o_0" arrivalPos="492.80" arrivalSpeed="10.35" duration="86.00" routeLength="995.70" waitingTime="0.00" waitingCount="0" stopTime="0.00" timeLoss="12.83" rerouteNo="0" devices="tripinfo_SN_98" vType="car" speedFactor="0.97" vaporized=""/>
    <tripinfo id="SN_114" depart="114.00" departLane="3i_0" departPos="4.10" departSpeed="0.00" departDelay="0.00" arrival="189.00" arrivalLane="2o_0" arrivalPos="492.80" arrivalSpeed="11.36" duration="75.00" routeLength="990.53" waitingTime="1.00" waitingCount="1" stopTime="0.00" timeLoss="10.51" rerouteNo="0" devices="tripinfo_SN_114" vType="car" speedFactor="1.09" vaporized=""/>
    <tripinfo id="NS_112" depart="112.00" departLane="2i_0" departPos="4.10" departSpeed="0.00" departDelay="0.00" arrival="190.00" arrivalLane="1o_0" arrivalPos="492.80" arrivalSpeed="11.20" duration="78.00" routeLength="995.90" waitingTime="0.00" waitingCount="0" stopTime="0.00" timeLoss="9.26" rerouteNo="0" devices="tripinfo_NS_112" vType="car" speedFactor="1.03" vaporized=""/>
    <tripinfo id="EW_109" depart="109.00" departLane="4i_0" departPos="10.10" departSpeed="0.00" departDelay="0.00" arrival="193.00" arrivalLane="1o_0" arrivalPos="492.80" arrivalSpeed="11.36" duration="84.00" routeLength="984.53" waitingTime="0.00" waitingCount="0" stopTime="0.00" timeLoss="16.26" rerouteNo="0" devices="tripinfo_EW_109" vType="truck" speedFactor="1.05" vaporized=""/>
    <tripinfo id="NS_113" depart="115.00" departLane="2i_0" departPos="4.10" departSpeed="0.00" departDelay="2.00" arrival="202.00" arrivalLane="3o_0" arrivalPos="492.80" arrivalSpeed="9.40" duration="87.00" routeLength="995.70" waitingTime="1.00" waitingCount="1" stopTime="0.00" timeLoss="12.98" rerouteNo="0" devices="tripinfo_NS_113" vType="car" speedFactor="0.96" vaporized=""/>
    <tripinfo id="WE_119" depart="120.00" departLane="1i_0" departPos="4.10" departSpeed="0.00" departDelay="1.00" arrival="202.00" arrivalLane="2o_0" arrivalPos="492.80" arrivalSpeed="11.04" duration="82.00" routeLength="995.90" waitingTime="1.00" waitingCount="1" stopTime="0.00" timeLoss="13.06" rerouteNo="0" devices="tripinfo_WE_119" vType="car" speedFactor="1.04" vaporized=""/>
    <tripinfo id="SN_123" depart="123.00" departLane="3i_0" departPos="10.10" departSpeed="0.00" departDelay="0.00" arrival="207.00" arrivalLane="4o_0" arrivalPos="492.80" arrivalSpeed="10.53" duration="84.00" routeLength="989.90" waitingTime="0.00" waitingCount="0" stopTime="0.00" timeLoss="12.99" rerouteNo="0" devices="tripinfo_SN_123" vType="truck" speedFactor="1.00" vaporized=""/>
    <tripinfo id="EW_110" depart="113.00" departLane="4i_0" departPos="4.10" departSpeed="0.00" departDelay="3.00" arrival="212.00" arrivalLane="3o_0" arrivalPos="492.80" arrivalSpeed="9.37" duration="99.00" routeLength="995.90" waitingTime="3.00" waitingCount="2" stopTime="0.00" timeLoss="19.84" rerouteNo="0" devices="tripinfo_EW_110" vType="car" speedFactor="0.90" vaporized=""/>
    <tripinfo id="NS_127" depart="127.00" departLane="2i_0" departPos="4.10" departSpeed="0.00" departDelay="0.00" arrival="217.00" arrivalLane="3o_0" arrivalPos="492.80" arrivalSpeed="9.67" duration="90.00" routeLength="995.70" waitingTime="0.00" waitingCount="0" stopTime="0.00" timeLoss="11.52" rerouteNo="0" devices="tripinfo_NS_127" vType="car" speedFactor="0.90" vaporized=""/>
    <tripinfo id="EW_122" depart="122.00" departLane="4i_0" departPos="4.10" departSpeed="0.00" departDelay="0.00" arrival="218.00" arrivalLane="2o_0" arrivalPos="492.80" arrivalSpeed="11.15" duration="96.00" routeLength="995.70" waitingTime="6.00" waitingCount="1" stopTime="0.00" timeLoss="27.67" rerouteNo="0" devices="tripinfo_EW_122" vType="car" speedFactor="1.04" vaporized=""/>
    <tripinfo id="SN_127" depart="127.00" departLane="3i_0" departPos="4.10" departSpeed="0.00" departDelay="0.00" arrival="223.00" arrivalLane="4o_0" arrivalPos="492.80" arrivalSpeed="8.90" duration="96.00" routeLength="995.90" waitingTime="1.00" waitingCount="1" stopTime="0.00" timeLoss="14.55" rerouteNo="0" devices="tripinfo_SN_127" vType="car" speedFactor="0.88" vaporized=""/>
    <tripinfo id="WE_131" depart="131.00" departLane="1i_0" departPos="4.10" departSpeed="0.00" departDelay="0.00" arrival="223.00" arrivalLane="3o_0" arrivalPos="492.80" arrivalSpeed="9.11" duration="92.00" routeLength="990.53" waitingTime="0.00" waitingCount="0" stopTime="0.00" timeLoss="8.83" rerouteNo="0" devices="tripinfo_WE_131" vType="car" speedFactor="0.85" vaporized=""/>
    <tripinfo id="EW_123" depart="125.00" departLane="4i_0" departPos="4.10" departSpeed="0.00" departDelay="2.00" arrival="225.00" arrivalLane="3o_0" arrivalPos="492.80" arrivalSpeed="10.85" duration="100.00" routeLength="995.90" waitingTime="5.00" waitingCount="1" stopTime="0.00" timeLoss="34.50" rerouteNo="0" devices="tripinfo_EW_123" vType="car" speedFactor="1.09" vaporized=""/>
    <tripinfo id="WE_143" depart="143.00" departLane="1i_0" departPos="4.10" departSpeed="0.00" departDelay="0.00" arrival="226.00" arrivalLane="3o_0" arrivalPos="492.80" arrivalSpeed="12.17" duration="83.00" routeLength="990.53" waitingTime="1.00" waitingCount="1" stopTime="0.00" timeLoss="22.92" rerouteNo="0" devices="tripinfo_WE_143" vType="car" speedFactor="1.17" vaporized=""/>
    <tripinfo id="WE_147" depart="147.00" departLane="1i_0" departPos="4.10" departSpeed="0.00" departDelay="0.00" arrival="227.00" arrivalLane="4o_0" arrivalPos="492.80" arrivalSpeed="11.29" duration="80.00" routeLength="995.70" waitingTime="0.00" waitingCount="0" stopTime="0.00" timeLoss="10.11" rerouteNo="0" devices="tripinfo_WE_147" vType="car" speedFactor="1.02" vaporized=""/>
    <tripinfo id="NS_148" depart="148.00" departLane="2i_0" departPos="4.10" departSpeed="0.00" departDelay="0.00" arrival="229.00" arrivalLane="4o_0" arrivalPos="492.80" arrivalSpeed="11.04" duration="81.00" routeLength="990.53" waitingTime="2.00" waitingCount="1" stopTime="0.00" timeLoss="16.41" rerouteNo="0" devices="tripinfo_NS_148" vType="car" speedFactor="1.10" vaporized=""/>
    <tripinfo id="NS_134" depart="134.00" departLane="2i_0" departPos="4.10" departSpeed="0.00" departDelay="0.00" arrival="237.00" arrivalLane="3o_0" arrivalPos="492.80" arrivalSpeed="9.17" duration="103.00" routeLength="995.70" waitingTime="5.00" waitingCount="1" stopTime="0.00" timeLoss="19.65" rerouteNo="0" devices="tripinfo_NS_134" vType="car" speedFactor="0.85" vaporized=""/>
    <tripinfo id="NS_150" depart="151.00" departLane="2i_0" departPos="4.10" departSpeed="0.00" departDelay="1.00" arrival="238.00" arrivalLane="3o_0" arrivalPos="492.80" arrivalSpeed="11.11" duration="87.00" routeLength="995.70" waitingTime="0.00" waitingCount="0" stopTime="0.00" timeLoss="16.41" rerouteNo="0" devices="tripinfo_NS_150" vType="car" speedFactor="1.00" vaporized=""/>
    <tripinfo id="WE_152" depart="152.00" departLane="1i_0" departPos="4.10" departSpeed="0.00" departDelay="0.00" arrival="239.00" arrivalLane="4o_0" arrivalPos="492.80" arrivalSpeed="9.96" duration="87.00" routeLength="995.70" waitingTime="1.00" waitingCount="1" stopTime="0.00" timeLoss="15.57" rerouteNo="0" devices="tripinfo_WE_152" vType="car" speedFactor="1.00" vaporized=""/>
    <tripinfo id="WE_159" depart="159.00" departLane="1i_0" departPos="4.10" departSpeed="0.00" departDelay="0.00" arrival="245.00" arrivalLane="2o_0" arrivalPos="492.80" arrivalSpeed="11.13" duration="86.00" routeLength="995.90" waitingTime="3.00" waitingCount="1" stopTime="0.00" timeLoss="16.48" rerouteNo="0" devices="tripinfo_WE_159" vType="car" speedFactor="1.02" vaporized=""/>
    <tripinfo id="NS_159" depart="159.00" departLane="2i_0" departPos="4.10" departSpeed="0.00" departDelay="0.00" arrival="245.00" arrivalLane="4o_0" arrivalPos="492.80" arrivalSpeed="9.50" duration="86.00" routeLength="990.53" waitingTime="0.00" waitingCount="0" stopTime="0.00" timeLoss="13.53" rerouteNo="0" devices="tripinfo_NS_159" vType="car" speedFactor="0.97" vaporized=""/>
    <tripinfo id="NS_164" depart="164.00" departLane="2i_0" departPos="4.10" departSpeed="0.00" departDelay="0.00" arrival="247.00" arrivalLane="4o_0" arrivalPos="492.80" arrivalSpeed="11.65" duration="83.00" routeLength="990.53" waitingTime="0.00" waitingCount="0" stopTime="0.00" timeLoss="19.75" rerouteNo="0" devices="tripinfo_NS_164" vType="car" speedFactor="1.12" vaporized=""/>
    <tripinfo id="EW_153" depart="153.00" departLane="4i_0" departPos="4.10" departSpeed="0.00" departDelay="0.00" arrival="248.00" arrivalLane="3o_0" arrivalPos="492.80" arrivalSpeed="9.96" duration="95.00" routeLength="995.90" waitingTime="1.00" waitingCount="1" stopTime="0.00" timeLoss="15.91" rerouteNo="0" devices="tripinfo_EW_153" vType="car" speedFactor="0.90" vaporized=""/>
    <tripinfo id="EW_167" depart="167.00" departLane="4i_0" departPos="4.10" departSpeed="0.00" departDelay="0.00" arrival="248.00" arrivalLane="1o_0" arrivalPos="492.80" arrivalSpeed="10.83" duration="81.00" routeLength="990.53" waitingTime="0.00" waitingCount="0" stopTime="0.00" timeLoss="11.84" rerouteNo="0" devices="tripinfo_EW_167" vType="car" speedFactor="1.02" vaporized=""/>
    <tripinfo id="SN_156" depart="157.00" departLane="3i_0" departPos="4.10" departSpeed="0.00" departDelay="1.00" arrival="249.00" arrivalLane="4o_0" arrivalPos="492.80" arrivalSpeed="11.40" duration="92.00" routeLength="995.90" waitingTime="9.00" waitingCount="1" stopTime="0.00" timeLoss="29.60" rerouteNo="0" devices="tripinfo_SN_156" vType="car" speedFactor="1.14" vaporized=""/>
    <tripinfo id="SN_160" depart="160.00" departLane="3i_0" departPos="4.10" departSpeed="0.00" departDelay="0.00" arrival="250.00" arrivalLane="1o_0" arrivalPos="492.80" arrivalSpeed="11.44" duration="90.00" routeLength="995.70" waitingTime="9.00" waitingCount="1" stopTime="0.00" timeLoss="24.40" rerouteNo="0" devices="tripinfo_SN_160" vType="car" speedFactor="1.08" vaporized=""/>
    <tripinfo id="NS_170" depart="173.00" departLane="2i_0" departPos="4.10" departSpeed="0.00" departDelay="3.00" arrival="255.00" arrivalLane="1o_0" arrivalPos="492.80" arrivalSpeed="10.44" duration="82.00" routeLength="995.90" waitingTime="0.00" waitingCount="0" stopTime="0.00" timeLoss="9.54" rerouteNo="0" devices="tripinfo_NS_170" vType="car" speedFactor="0.99" vaporized=""/>
    <tripinfo id="EW_173" depart="173.00" departLane="4i_0" departPos="4.10" departSpeed="0.00" departDelay="0.00" arrival="259.00" arrivalLane="1o_0" arrivalPos="492.80" arrivalSpeed="10.40" duration="86.00" routeLength="990.53" waitingTime="0.00" waitingCount="0" stopTime="0.00" timeLoss="10.68" rerouteNo="0" devices="tripinfo_EW_173" vType="car" speedFactor="0.94" vaporized=""/>
    <tripinfo id="SN_186" depart="186.00" departLane="3i_0" departPos="4.10" departSpeed="0.00" departDelay="0.00" arrival="266.00" arrivalLane="2o_0" arrivalPos="492.80" arrivalSpeed="10.29" duration="80.00" routeLength="990.53" waitingTime="0.00" waitingCount="0" stopTime="0.00" timeLoss="11.68" rerouteNo="0" devices="tripinfo_SN_186" vType="car" speedFactor="1.04" vaporized=""/>
    <tripinfo id="EW_176" depart="178.00" departLane="4i_0" departPos="4.10" departSpeed="0.00" departDelay="2.00" arrival="267.00" arrivalLane="1o_0" arrivalPos="492.80" arrivalSpeed="8.99" duration="89.00" routeLength="990.53" waitingTime="0.00" waitingCount="0" stopTime="0.00" timeLoss="8.35" rerouteNo="0" devices="tripinfo_EW_176" vType="car" speedFactor="0.88" vaporized=""/>
    <tripinfo id="SN_177" depart="177.00" departLane="3i_0" departPos="4.10" departSpeed="0.00" departDelay="0.00" arrival="270.00" arrivalLane="1o_0" arrivalPos="492.80" arrivalSpeed="9.98" duration="93.00" routeLength="995.70" waitingTime="0.00" waitingCount="0" stopTime="0.00" timeLoss="15.10" rerouteNo="0" devices="tripinfo_SN_177" vType="car" speedFactor="0.91" vaporized=""/>
    <tripinfo id="EW_187" depart="187.00" departLane="4i_0" departPos="4.10" departSpeed="0.00" departDelay="0.00" arrival="272.00" arrivalLane="1o_0" arrivalPos="492.80" arrivalSpeed="10.65" duration="85.00" routeLength="990.53" waitingTime="0.00" waitingCount="0" stopTime="0.00" timeLoss="15.82" rerouteNo="0" devices="tripinfo_EW_187" vType="car" speedFactor="1.02" vaporized=""/>
    <tripinfo id="WE_188" depart="188.00" departLane="1i_0" departPos="4.10" departSpeed="0.00" departDelay="0.00" arrival="273.00" arrivalLane="4o_0" arrivalPos="492.80" arrivalSpeed="10.65" duration="85.00" routeLength="995.70" waitingTime="0.00" waitingCount="0" stopTime="0.00" timeLoss="15.34" rerouteNo="0" devices="tripinfo_WE_188" vType="car" speedFactor="1.02" vaporized=""/>
    <tripinfo id="WE_185" depart="185.00" departLane="1i_0" departPos="4.10" departSpeed="0.00" departDelay="0.00" arrival="274.00" arrivalLane="2o_0" arrivalPos="492.80" arrivalSpeed="9.74" duration="89.00" routeLength="995.90" waitingTime="0.00" waitingCount="0" stopTime="0.00" timeLoss="11.06" rerouteNo="0" devices="tripinfo_WE_185" vType="car" speedFactor="0.91" vaporized=""/>
    <tripinfo id="NS_188" depart="189.00" departLane="2i_0" departPos="4.10" departSpeed="0.00" departDelay="1.00" arrival="274.00" arrivalLane="1o_0" arrivalPos="492.80" arrivalSpeed="10.60" duration="85.00" routeLength="995.90" waitingTime="0.00" waitingCount="0" stopTime="0.00" timeLoss="12.02" rerouteNo="0" devices="tripinfo_NS_188" vType="car" speedFactor="0.97" vaporized=""/>
    <tripinfo id="EW_191" depart="191.00" departLane="4i_0" departPos="4.10" departSpeed="0.00" departDelay="0.00" arrival="274.00" arrivalLane="3o_0" arrivalPos="492.80" arrivalSpeed="11.37" duration="83.00" routeLength="995.90" waitingTime="2.00" waitingCount="1" stopTime="0.00" timeLoss="15.96" rerouteNo="0" devices="tripinfo_EW_191" vType="car" speedFactor="1.06" vaporized=""/>
    <tripinfo id="WE_197" depart="197.00" departLane="1i_0" departPos="4.10" departSpeed="0.00" departDelay="0.00" arrival="280.00" arrivalLane="3o_0" arrivalPos="492.80" arrivalSpeed="10.64" duration="83.00" routeLength="990.53" waitingTime="0.00" waitingCount="0" stopTime="0.00" timeLoss="10.83" rerouteNo="0" devices="tripinfo_WE_197" vType="car" speedFactor="0.98" vaporized=""/>
    <tripinfo id="NS_190" depart="192.00" departLane="2i_0" departPos="4.10" departSpeed="0.00" departDelay="2.00" arrival="282.00" arrivalLane="1o_0" arrivalPos="492.80" arrivalSpeed="10.10" duration="90.00" routeLength="995.90" waitingTime="1.00" waitingCount="1" stopTime="0.00" timeLoss="14.98" rerouteNo="0" devices="tripinfo_NS_190" vType="car" speedFactor="0.94" vaporized=""/>
    <tripinfo id="NS_201" depart="202.00" departLane="2i_0" departPos="4.10" departSpeed="0.00" departDelay="1.00" arrival="284.00" arrivalLane="1o_0" arrivalPos="492.80" arrivalSpeed="10.25" duration="82.00" routeLength="995.90" waitingTime="0.00" waitingCount="0" stopTime="0.00" timeLoss="13.31" rerouteNo="0" devices="tripinfo_NS_201" vType="car" speedFactor="1.03" vaporized=""/>