<?xml version="1.0" encoding="UTF-8"?>

<!-- generated on 2024-05-05 17:20:36 by Eclipse SUMO sumo Version 1.19.0
<configuration xmlns:xsi="http://www.w3.org/2001/XMLSchema-instance" xsi:noNamespaceSchemaLocation="http://sumo.dlr.de/xsd/sumoConfiguration.xsd">

    <input>
        <net-file value="twoone.net.xml"/>
        <route-files value="route_gen.rou.xml"/>
    </input>

    <output>
        <tripinfo-output value="tripinfo_epi290.xml"/>
    </output>

    <report>
        <no-warnings value="true"/>
    </report>

    <traci_server>
        <remote-port value="56427"/>
    </traci_server>

</configuration>
-->

<tripinfos xmlns:xsi="http://www.w3.org/2001/XMLSchema-instance" xsi:noNamespaceSchemaLocation="http://sumo.dlr.de/xsd/tripinfo_file.xsd">
    <tripinfo id="EW_0" depart="0.00" departLane="4i_0" departPos="4.10" departSpeed="0.00" departDelay="0.00" arrival="76.00" arrivalLane="3o_0" arrivalPos="492.80" arrivalSpeed="11.41" duration="76.00" routeLength="995.90" waitingTime="0.00" waitingCount="0" stopTime="0.00" timeLoss="9.14" rerouteNo="0" devices="tripinfo_EW_0" vType="car" speedFactor="1.06" vaporized=""/>
    <tripinfo id="NS_8" depart="8.00" departLane="2i_0" departPos="4.10" departSpeed="0.00" departDelay="0.00" arrival="82.00" arrivalLane="1o_0" arrivalPos="492.80" arrivalSpeed="11.60" duration="74.00" routeLength="995.90" waitingTime="0.00" waitingCount="0" stopTime="0.00" timeLoss="7.80" rerouteNo="0" devices="tripinfo_NS_8" vType="car" speedFactor="1.08" vaporized=""/>
    <tripinfo id="EW_5" depart="5.00" departLane="4i_0" departPos="4.10" departSpeed="0.00" departDelay="0.00" arrival="95.00" arrivalLane="2o_0" arrivalPos="492.80" arrivalSpeed="10.33" duration="90.00" routeLength="995.70" waitingTime="1.00" waitingCount="1" stopTime="0.00" timeLoss="14.63" rerouteNo="0" devices="tripinfo_EW_5" vType="car" speedFactor="0.94" vaporized=""/>
    <tripinfo id="SN_13" depart="13.00" departLane="3i_0" departPos="4.10" departSpeed="0.00" departDelay="0.00" arrival="97.00" arrivalLane="2o_0" arrivalPos="492.80" arrivalSpeed="10.68" duration="84.00" routeLength="990.53" waitingTime="7.00" waitingCount="1" stopTime="0.00" timeLoss="15.65" rerouteNo="0" devices="tripinfo_SN_13" vType="car" speedFactor="1.03" vaporized=""/>
    <tripinfo id="NS_21" depart="21.00" departLane="2i_0" departPos="4.10" departSpeed="0.00" departDelay="0.00" arrival="98.00" arrivalLane="4o_0" arrivalPos="492.80" arrivalSpeed="10.62" duration="77.00" routeLength="990.53" waitingTime="0.00" waitingCount="0" stopTime="0.00" timeLoss="9.50" rerouteNo="0" devices="tripinfo_NS_21" vType="car" speedFactor="1.05" vaporized=""/>
    <tripinfo id="EW_6" depart="8.00" departLane="4i_0" departPos="4.10" departSpeed="0.00" departDelay="2.00" arrival="101.00" arrivalLane="2o_0" arrivalPos="492.80" arrivalSpeed="10.85" duration="93.00" routeLength="995.70" waitingTime="2.00" waitingCount="1" stopTime="0.00" timeLoss="22.92" rerouteNo="0" devices="tripinfo_EW_6" vType="car" speedFactor="1.01" vaporized=""/>
    <tripinfo id="WE_22" depart="22.00" departLane="1i_0" departPos="4.10" departSpeed="0.00" departDelay="0.00" arrival="108.00" arrivalLane="3o_0" arrivalPos="492.80" arrivalSpeed="9.37" duration="86.00" routeLength="990.53" waitingTime="1.00" waitingCount="1" stopTime="0.00" timeLoss="10.65" rerouteNo="0" devices="tripinfo_WE_22" vType="car" speedFactor="0.94" vaporized=""/>
    <tripinfo id="WE_32" depart="32.00" departLane="1i_0" departPos="4.10" departSpeed="0.00" departDelay="0.00" arrival="110.00" arrivalLane="3o_0" arrivalPos="492.80" arrivalSpeed="11.32" duration="78.00" routeLength="990.53" waitingTime="0.00" waitingCount="0" stopTime="0.00" timeLoss="8.91" rerouteNo="0" devices="tripinfo_WE_32" vType="car" speedFactor="1.03" vaporized=""/>
    <tripinfo id="SN_19" depart="19.00" departLane="3i_0" departPos="10.10" departSpeed="0.00" departDelay="0.00" arrival="112.00" arrivalLane="4o_0" arrivalPos="492.80" arrivalSpeed="9.62" duration="93.00" routeLength="989.90" waitingTime="0.00" waitingCount="0" stopTime="0.00" timeLoss="16.22" rerouteNo="0" devices="tripinfo_SN_19" vType="truck" speedFactor="0.92" vaporized=""/>
    <tripinfo id="WE_33" depart="34.00" departLane="1i_0" departPos="4.10" departSpeed="0.00" departDelay="1.00" arrival="112.00" arrivalLane="3o_0" arrivalPos="492.80" arrivalSpeed="10.77" duration="78.00" routeLength="990.53" waitingTime="0.00" waitingCount="0" stopTime="0.00" timeLoss="9.94" rerouteNo="0" devices="tripinfo_WE_33" vType="car" speedFactor="1.05" vaporized=""/>
    <tripinfo id="EW_22" depart="22.00" departLane="4i_0" departPos="4.10" departSpeed="0.00" departDelay="0.00" arrival="118.00" arrivalLane="1o_0" arrivalPos="492.80" arrivalSpeed="9.41" duration="96.00" routeLength="990.53" waitingTime="2.00" waitingCount="1" stopTime="0.00" timeLoss="13.43" rerouteNo="0" devices="tripinfo_EW_22" vType="car" speedFactor="0.86" vaporized=""/>
    <tripinfo id="NS_36" depart="36.00" departLane="2i_0" departPos="4.10" departSpeed="0.00" departDelay="0.00" arrival="120.00" arrivalLane="1o_0" arrivalPos="492.80" arrivalSpeed="12.09" duration="84.00" routeLength="995.90" waitingTime="0.00" waitingCount="0" stopTime="0.00" timeLoss="20.00" rerouteNo="0" devices="tripinfo_NS_36" vType="car" speedFactor="1.12" vaporized=""/>
    <tripinfo id="NS_37" depart="38.00" departLane="2i_0" departPos="4.10" departSpeed="0.00" departDelay="1.00" arrival="120.00" arrivalLane="3o_0" arrivalPos="492.80" arrivalSpeed="10.28" duration="82.00" routeLength="995.70" waitingTime="0.00" waitingCount="0" stopTime="0.00" timeLoss="9.96" rerouteNo="0" devices="tripinfo_NS_37" vType="car" speedFactor="0.99" vaporized=""/>
    <tripinfo id="WE_40" depart="40.00" departLane="1i_0" departPos="4.10" departSpeed="0.00" departDelay="0.00" arrival="129.00" arrivalLane="3o_0" arrivalPos="492.80" arrivalSpeed="9.33" duration="89.00" routeLength="990.53" waitingTime="0.00" waitingCount="0" stopTime="0.00" timeLoss="8.53" rerouteNo="0" devices="tripinfo_WE_40" vType="car" speedFactor="0.88" vaporized=""/>
    <tripinfo id="WE_54" depart="54.00" departLane="1i_0" departPos="4.10" departSpeed="0.00" departDelay="0.00" arrival="135.00" arrivalLane="3o_0" arrivalPos="492.80" arrivalSpeed="9.84" duration="81.00" routeLength="990.53" waitingTime="0.00" waitingCount="0" stopTime="0.00" timeLoss="8.46" rerouteNo="0" devices="tripinfo_WE_54" vType="car" speedFactor="0.97" vaporized=""/>
    <tripinfo id="NS_39" depart="42.00" departLane="2i_0" departPos="10.10" departSpeed="0.00" departDelay="3.00" arrival="146.00" arrivalLane="3o_0" arrivalPos="492.80" arrivalSpeed="10.58" duration="104.00" routeLength="989.70" waitingTime="9.00" waitingCount="1" stopTime="0.00" timeLoss="30.64" rerouteNo="0" devices="tripinfo_NS_39" vType="truck" speedFactor="0.96" vaporized=""/>
    <tripinfo id="SN_21" depart="23.00" departLane="3i_0" departPos="4.10" departSpeed="0.00" departDelay="2.00" arrival="149.00" arrivalLane="2o_0" arrivalPos="492.80" arrivalSpeed="9.71" duration="126.00" routeLength="990.53" waitingTime="30.00" waitingCount="1" stopTime="0.00" timeLoss="46.22" rerouteNo="0" devices="tripinfo_SN_21" vType="car" speedFactor="0.89" vaporized=""/>
    <tripinfo id="NS_43" depart="46.00" departLane="2i_0" departPos="4.10" departSpeed="0.00" departDelay="3.00" arrival="152.00" arrivalLane="3o_0" arrivalPos="492.80" arrivalSpeed="9.70" duration="106.00" routeLength="995.70" waitingTime="7.00" waitingCount="1" stopTime="0.00" timeLoss="30.10" rerouteNo="0" devices="tripinfo_NS_43" vType="car" speedFactor="0.94" vaporized=""/>
    <tripinfo id="NS_46" depart="49.00" departLane="2i_0" departPos="4.10" departSpeed="0.00" departDelay="3.00" arrival="155.00" arrivalLane="3o_0" arrivalPos="492.80" arrivalSpeed="10.55" duration="106.00" routeLength="995.70" waitingTime="11.00" waitingCount="2" stopTime="0.00" timeLoss="36.04" rerouteNo="0" devices="tripinfo_NS_46" vType="car" speedFactor="1.02" vaporized=""/>
    <tripinfo id="NS_72" depart="72.00" departLane="2i_0" departPos="4.10" departSpeed="0.00" departDelay="0.00" arrival="156.00" arrivalLane="3o_0" arrivalPos="492.80" arrivalSpeed="11.90" duration="84.00" routeLength="995.70" waitingTime="1.00" waitingCount="1" stopTime="0.00" timeLoss="24.02" rerouteNo="0" devices="tripinfo_NS_72" vType="car" speedFactor="1.18" vaporized=""/>
    <tripinfo id="NS_59" depart="59.00" departLane="2i_0" departPos="10.10" departSpeed="0.00" departDelay="0.00" arrival="161.00" arrivalLane="4o_0" arrivalPos="492.80" arrivalSpeed="10.39" duration="102.00" routeLength="984.53" waitingTime="2.00" waitingCount="1" stopTime="0.00" timeLoss="27.24" rerouteNo="0" devices="tripinfo_NS_59" vType="truck" speedFactor="0.94" vaporized=""/>
    <tripinfo id="WE_69" depart="69.00" departLane="1i_0" departPos="4.10" departSpeed="0.00" departDelay="0.00" arrival="163.00" arrivalLane="4o_0" arrivalPos="492.80" arrivalSpeed="11.95" duration="94.00" routeLength="995.70" waitingTime="19.00" waitingCount="1" stopTime="0.00" timeLoss="31.45" rerouteNo="0" devices="tripinfo_WE_69" vType="car" speedFactor="1.13" vaporized=""/>
    <tripinfo id="NS_77" depart="77.00" departLane="2i_0" departPos="10.10" departSpeed="0.00" departDelay="0.00" arrival="163.00" arrivalLane="1o_0" arrivalPos="492.80" arrivalSpeed="11.08" duration="86.00" routeLength="989.90" waitingTime="0.00" waitingCount="0" stopTime="0.00" timeLoss="15.27" rerouteNo="0" devices="tripinfo_NS_77" vType="truck" speedFactor="1.00" vaporized=""/>
    <tripinfo id="WE_75" depart="75.00" departLane="1i_0" departPos="4.10" departSpeed="0.00" departDelay="0.00" arrival="164.00" arrivalLane="3o_0" arrivalPos="492.80" arrivalSpeed="11.82" duration="89.00" routeLength="990.53" waitingTime="13.00" waitingCount="1" stopTime="0.00" timeLoss="27.75" rerouteNo="0" devices="tripinfo_WE_75" vType="car" speedFactor="1.15" vaporized=""/>
    <tripinfo id="WE_94" depart="94.00" departLane="1i_0" departPos="4.10" departSpeed="0.00" departDelay="0.00" arrival="173.00" arrivalLane="4o_0" arrivalPos="492.80" arrivalSpeed="12.15" duration="79.00" routeLength="995.70" waitingTime="3.00" waitingCount="1" stopTime="0.00" timeLoss="18.59" rerouteNo="0" devices="tripinfo_WE_94" vType="car" speedFactor="1.18" vaporized=""/>
    <tripinfo id="NS_93" depart="93.00" departLane="2i_0" departPos="4.10" departSpeed="0.00" departDelay="0.00" arrival="176.00" arrivalLane="3o_0" arrivalPos="492.80" arrivalSpeed="10.59" duration="83.00" routeLength="995.70" waitingTime="0.00" waitingCount="0" stopTime="0.00" timeLoss="10.12" rerouteNo="0" devices="tripinfo_NS_93" vType="car" speedFactor="0.97" vaporized=""/>
    <tripinfo id="NS_110" depart="110.00" departLane="2i_0" departPos="4.10" departSpeed="0.00" departDelay="0.00" arrival="183.00" arrivalLane="4o_0" arrivalPos="492.80" arrivalSpeed="11.29" duration="73.00" routeLength="990.53" waitingTime="0.00" waitingCount="0" stopTime="0.00" timeLoss="7.65" rerouteNo="0" devices="tripinfo_NS_110" vType="car" speedFactor="1.09" vaporized=""/>
    <tripinfo id="EW_43" depart="43.00" departLane="4i_0" departPos="4.10" departSpeed="0.00" departDelay="0.00" arrival="187.00" arrivalLane="3o_0" arrivalPos="492.80" arrivalSpeed="9.88" duration="144.00" routeLength="995.90" waitingTime="51.00" waitingCount="4" stopTime="0.00" timeLoss="68.23" rerouteNo="0" devices="tripinfo_EW_43" vType="car" speedFactor="0.94" vaporized=""/>
    <tripinfo id="WE_98" depart="98.00" departLane="1i_0" departPos="4.10" departSpeed="0.00" departDelay="0.00" arrival="188.00" arrivalLane="4o_0" arrivalPos="492.80" arrivalSpeed="10.32" duration="90.00" routeLength="995.70" waitingTime="4.00" waitingCount="1" stopTime="0.00" timeLoss="21.40" rerouteNo="0" devices="tripinfo_WE_98" vType="car" speedFactor="1.03" vaporized=""/>
    <tripinfo id="SN_24" depart="25.00" departLane="3i_0" departPos="4.10" departSpeed="0.00" departDelay="1.00" arrival="190.00" arrivalLane="4o_0" arrivalPos="492.80" arrivalSpeed="11.13" duration="165.00" routeLength="995.90" waitingTime="71.00" waitingCount="4" stopTime="0.00" timeLoss="99.92" rerouteNo="0" devices="tripinfo_SN_24" vType="car" speedFactor="1.09" vaporized=""/>
    <tripinfo id="WE_104" depart="104.00" departLane="1i_0" departPos="10.10" departSpeed="0.00" departDelay="0.00" arrival="190.00" arrivalLane="3o_0" arrivalPos="492.80" arrivalSpeed="10.85" duration="86.00" routeLength="984.53" waitingTime="0.00" waitingCount="0" stopTime="0.00" timeLoss="14.21" rerouteNo="0" devices="tripinfo_WE_104" vType="truck" speedFactor="0.98" vaporized=""/>
    <tripinfo id="EW_46" depart="46.00" departLane="4i_0" departPos="4.10" departSpeed="0.00" departDelay="0.00" arrival="191.00" arrivalLane="2o_0" arrivalPos="492.80" arrivalSpeed="12.54" duration="145.00" routeLength="995.70" waitingTime="58.00" waitingCount="5" stopTime="0.00" timeLoss="83.99" rerouteNo="0" devices="tripinfo_EW_46" vType="car" speedFactor="1.16" vaporized=""/>
    <tripinfo id="SN_46" depart="46.00" departLane="3i_0" departPos="4.10" departSpeed="0.00" departDelay="0.00" arrival="210.00" arrivalLane="4o_0" arrivalPos="492.80" arrivalSpeed="10.18" duration="164.00" routeLength="995.90" waitingTime="69.00" waitingCount="5" stopTime="0.00" timeLoss="93.87" rerouteNo="0" devices="tripinfo_SN_46" vType="car" speedFactor="1.01" vaporized=""/>
    <tripinfo id="EW_92" depart="92.00" departLane="4i_0" departPos="4.10" departSpeed="0.00" departDelay="0.00" arrival="215.00" arrivalLane="3o_0" arrivalPos="492.80" arrivalSpeed="10.89" duration="123.00" routeLength="995.90" waitingTime="21.00" waitingCount="4" stopTime="0.00" timeLoss="53.66" rerouteNo="0" devices="tripinfo_EW_92" vType="car" speedFactor="1.02" vaporized=""/>
    <tripinfo id="EW_62" depart="62.00" departLane="4i_0" departPos="4.10" departSpeed="0.00" departDelay="0.00" arrival="220.00" arrivalLane="1o_0" arrivalPos="492.80" arrivalSpeed="9.04" duration="158.00" routeLength="990.53" waitingTime="48.00" waitingCount="4" stopTime="0.00" timeLoss="72.25" rerouteNo="0" devices="tripinfo_EW_62" vType="car" speedFactor="0.83" vaporized=""/>
    <tripinfo id="SN_62" depart="62.00" departLane="3i_0" departPos="4.10" departSpeed="0.00" departDelay="0.00" arrival="223.00" arrivalLane="4o_0" arrivalPos="492.80" arrivalSpeed="8.96" duration="161.00" routeLength="995.90" waitingTime="53.00" waitingCount="4" stopTime="0.00" timeLoss="80.06" rerouteNo="0" devices="tripinfo_SN_62" vType="car" speedFactor="0.87" vaporized=""/>
    <tripinfo id="WE_138" depart="138.00" departLane="1i_0" departPos="10.10" departSpeed="0.00" departDelay="0.00" arrival="226.00" arrivalLane="4o_0" arrivalPos="492.80" arrivalSpeed="10.90" duration="88.00" routeLength="989.70" waitingTime="0.00" waitingCount="0" stopTime="0.00" timeLoss="17.25" rerouteNo="0" devices="tripinfo_WE_138" vType="truck" speedFactor="1.00" vaporized=""/>
    <tripinfo id="SN_67" depart="67.00" departLane="3i_0" departPos="4.10" departSpeed="0.00" departDelay="0.00" arrival="231.00" arrivalLane="2o_0" arrivalPos="492.80" arrivalSpeed="9.39" duration="164.00" routeLength="990.53" waitingTime="59.00" waitingCount="5" stopTime="0.00" timeLoss="86.76" rerouteNo="0" devices="tripinfo_SN_67" vType="car" speedFactor="0.92" vaporized=""/>
    <tripinfo id="EW_95" depart="95.00" departLane="4i_0" departPos="4.10" departSpeed="0.00" departDelay="0.00" arrival="232.00" arrivalLane="2o_0" arrivalPos="492.80" arrivalSpeed="12.17" duration="137.00" routeLength="995.70" waitingTime="27.00" waitingCount="4" stopTime="0.00" timeLoss="72.87" rerouteNo="0" devices="tripinfo_EW_95" vType="car" speedFactor="1.10" vaporized=""/>
    <tripinfo id="WE_151" depart="151.00" departLane="1i_0" departPos="4.10" departSpeed="0.00" departDelay="0.00" arrival="234.00" arrivalLane="2o_0" arrivalPos="492.80" arrivalSpeed="12.51" duration="83.00" routeLength="995.90" waitingTime="0.00" waitingCount="0" stopTime="0.00" timeLoss="20.88" rerouteNo="0" devices="tripinfo_WE_151" vType="car" speedFactor="1.14" vaporized=""/>
    <tripinfo id="NS_147" depart="147.00" departLane="2i_0" departPos="4.10" departSpeed="0.00" departDelay="0.00" arrival="236.00" arrivalLane="4o_0" arrivalPos="492.80" arrivalSpeed="8.71" duration="89.00" routeLength="990.53" waitingTime="0.00" waitingCount="0" stopTime="0.00" timeLoss="10.21" rerouteNo="0" devices="tripinfo_NS_147" vType="car" speedFactor="0.90" vaporized=""/>
    <tripinfo id="WE_159" depart="159.00" departLane="1i_0" departPos="4.10" departSpeed="0.00" departDelay="0.00" arrival="236.00" arrivalLane="3o_0" arrivalPos="492.80" arrivalSpeed="11.34" duration="77.00" routeLength="990.53" waitingTime="0.00" waitingCount="0" stopTime="0.00" timeLoss="8.19" rerouteNo="0" devices="tripinfo_WE_159" vType="car" speedFactor="1.02" vaporized=""/>
    <tripinfo id="EW_106" depart="106.00" departLane="4i_0" departPos="4.10" departSpeed="0.00" departDelay="0.00" arrival="244.00" arrivalLane="2o_0" arrivalPos="492.80" arrivalSpeed="12.01" duration="138.00" routeLength="995.70" waitingTime="30.00" waitingCount="6" stopTime="0.00" timeLoss="72.83" rerouteNo="0" devices="tripinfo_EW_106" vType="car" speedFactor="1.09" vaporized=""/>
    <tripinfo id="WE_160" depart="163.00" departLane="1i_0" departPos="4.10" departSpeed="0.00" departDelay="3.00" arrival="245.00" arrivalLane="3o_0" arrivalPos="492.80" arrivalSpeed="9.70" duration="82.00" routeLength="990.53" waitingTime="0.00" waitingCount="0" stopTime="0.00" timeLoss="9.02" rerouteNo="0" devices="tripinfo_WE_160" vType="car" speedFactor="0.97" vaporized=""/>
    <tripinfo id="SN_68" depart="70.00" departLane="3i_0" departPos="4.10" departSpeed="0.00" departDelay="2.00" arrival="246.00" arrivalLane="4o_0" arrivalPos="492.80" arrivalSpeed="10.16" duration="176.00" routeLength="995.90" waitingTime="69.00" waitingCount="5" stopTime="0.00" timeLoss="100.76" rerouteNo="0" devices="tripinfo_SN_68" vType="car" speedFactor="0.95" vaporized=""/>
    <tripinfo id="NS_163" depart="163.00" departLane="2i_0" departPos="4.10" departSpeed="0.00" departDelay="0.00" arrival="247.00" arrivalLane="3o_0" arrivalPos="492.80" arrivalSpeed="11.82" duration="84.00" routeLength="995.70" waitingTime="0.00" waitingCount="0" stopTime="0.00" timeLoss="18.07" rerouteNo="0" devices="tripinfo_NS_163" vType="car" speedFactor="1.08" vaporized=""/>
    <tripinfo id="EW_107" depart="109.00" departLane="4i_0" departPos="4.10" departSpeed="0.00" departDelay="2.00" arrival="263.00" arrivalLane="2o_0" arrivalPos="492.80" arrivalSpeed="10.30" duration="154.00" routeLength="995.70" waitingTime="38.00" waitingCount="6" stopTime="0.00" timeLoss="85.49" rerouteNo="0" devices="tripinfo_EW_107" vType="car" speedFactor="1.04" vaporized=""/>
    <tripinfo id="SN_90" depart="90.00" departLane="3i_0" departPos="4.10" departSpeed="0.00" departDelay="0.00" arrival="264.00" arrivalLane="2o_0" arrivalPos="492.80" arrivalSpeed="12.03" duration="174.00" routeLength="990.53" waitingTime="63.00" waitingCount="8" stopTime="0.00" timeLoss="114.07" rerouteNo="0" devices="tripinfo_SN_90" vType="car" speedFactor="1.17" vaporized=""/>
    <tripinfo id="SN_71" depart="73.00" departLane="3i_0" departPos="4.10" departSpeed="0.00" departDelay="2.00" arrival="265.00" arrivalLane="4o_0" arrivalPos="492.80" arrivalSpeed="9.57" duration="192.00" routeLength="995.90" waitingTime="77.00" waitingCount="7" stopTime="0.00" timeLoss="115.74" rerouteNo="0" devices="tripinfo_SN_71" vType="car" speedFactor="0.93" vaporized=""/>
    <tripinfo id="NS_185" depart="185.00" departLane="2i_0" departPos="4.10" departSpeed="0.00" departDelay="0.00" arrival="267.00" arrivalLane="4o_0" arrivalPos="492.80" arrivalSpeed="10.85" duration="82.00" routeLength="990.53" waitingTime="0.00" waitingCount="0" stopTime="0.00" timeLoss="10.12" rerouteNo="0" devices="tripinfo_NS_185" vType="car" speedFactor="0.99" vaporized=""/>
    <tripinfo id="EW_123" depart="123.00" departLane="4i_0" departPos="4.10" departSpeed="0.00" departDelay="0.00" arrival="277.00" arrivalLane="1o_0" arrivalPos="492.80" arrivalSpeed="8.25" duration="154.00" routeLength="990.53" waitingTime="33.00" waitingCount="6" stopTime="0.00" timeLoss="70.92" rerouteNo="0" devices="tripinfo_EW_123" vType="car" speedFactor="0.85" vaporized=""/>
    <tripinfo id="EW_137" depart="137.00" departLane="4i_0" departPos="4.10" departSpeed="0.00" departDelay="0.00" arrival="277.00" arrivalLane="3o_0" arrivalPos="492.80" arrivalSpeed="11.73" duration="140.00" routeLength="995.90" waitingTime="23.00" waitingCount="4" stopTime="0.00" timeLoss="75.49" rerouteNo="0" devices="tripinfo_EW_137" vType="car" speedFactor="1.10" vaporized=""/>
    <tripinfo id="EW_132" depart="132.00" departLane="4i_0" departPos="4.10" departSpeed="0.00" departDelay="0.00" arrival="279.00" arrivalLane="1o_0" arrivalPos="492.80" arrivalSpeed="10.49" duration="147.00" routeLength="990.53" waitingTime="27.00" waitingCount="6" stopTime="0.00" timeLoss="77.21" rerouteNo="0" devices="tripinfo_EW_132" vType="car" speedFactor="1.02" vaporized=""/>
    <tripinfo id="SN_91" depart="93.00" departLane="3i_0" departPos="4.10" departSpeed="0.00" departDelay="2.00" arrival="280.00" arrivalLane="1o_0" arrivalPos="492.80" arrivalSpeed="9.87" duration="187.00" routeLength="995.70" waitingTime="60.00" waitingCount="10" stopTime="0.00" timeLoss="116.04" rerouteNo="0" devices="tripinfo_SN_91" vType="car" speedFactor="0.99" vaporized=""/>
    <tripinfo id="SN_109" depart="112.00" departLane="3i_0" departPos="4.10" departSpeed="0.00" departDelay="3.00" arrival="282.00" arrivalLane="2o_0" arrivalPos="492.80" arrivalSpeed="10.86" duration="170.00" routeLength="990.53" waitingTime="41.00" waitingCount="6" stopTime="0.00" timeLoss="102.30" rerouteNo="0" devices="tripinfo_SN_109" vType="car" speedFactor="1.04" vaporized=""/>
    <tripinfo id="EW_182" depart="183.00" departLane="4i_0" departPos="4.10" departSpeed="0.00" departDelay="1.00" arrival="284.00" arrivalLane="3o_0" arrivalPos="492.80" arrivalSpeed="10.79" duration="101.00" routeLength="995.90" waitingTime="0.00" waitingCount="0" stopTime="0.00" timeLoss="31.34" rerouteNo="0" devices="tripinfo_EW_182" vType="car" speedFactor="1.02" vaporized=""/>
    <tripinfo id="EW_200" depart="200.00" departLane="4i_0" departPos="4.10" departSpeed="0.00" departDelay="0.00" arrival="284.00" arrivalLane="1o_0" arrivalPos="492.80" arrivalSpeed="10.90" duration="84.00" routeLength="990.53" waitingTime="0.00" waitingCount="0" stopTime="0.00" timeLoss="16.40" rerouteNo="0" devices="tripinfo_EW_200" vType="car" speedFactor="1.04" vaporized=""/>
    <tripinfo id="SN_111" depart="115.00" departLane="3i_0" departPos="4.10" departSpeed="0.00" departDelay="4.00" arrival="286.00" arrivalLane="2o_0" arrivalPos="492.80" arrivalSpeed="10.33" duration="171.00" routeLength="990.53" waitingTime="38.00" waitingCount="6" stopTime="0.00" timeLoss="100.46" rerouteNo="0" devices="tripinfo_SN_111" vType="car" speedFactor="1.00" vaporized=""/>
    <tripinfo id="SN_97" depart="97.00" departLane="3i_0" departPos="4.10" departSpeed="0.00" departDelay="0.00" arrival="288.00" arrivalLane="4o_0" arrivalPos="492.80" arrivalSpeed="9.32" duration="191.00" routeLength="995.90" waitingTime="49.00" waitingCount="8" stopTime="0.00" timeLoss="111.81" rerouteNo="0" devices="tripinfo_SN_97" vType="car" speedFactor="0.90" vaporized=""/>
    <tripinfo id="NS_202" depart="202.00" departLane="2i_0" departPos="4.10" departSpeed="0.00" departDelay="0.00" arrival="289.00" arrivalLane="4o_0" arrivalPos="492.80" arrivalSpeed="10.20" duration="87.00" routeLength="990.53" waitingTime="1.00" waitingCount="1" stopTime="0.00" timeLoss="18.31" rerouteNo="0" devices="tripinfo_NS_202" vType="car" speedFactor="1.02" vaporized=""/>
    <tripinfo id="NS_209" depart="209.00" departLane="2i_0" departPos="4.10" departSpeed="0.00" departDelay="0.00" arrival="291.00" arrivalLane="4o_0" arrivalPos="492.80" arrivalSpeed="11.44" duration="82.00" routeLength="990.53" waitingTime="0.00" waitingCount="0" stopTime="0.00" timeLoss="15.17" rerouteNo="0" devices="tripinfo_NS_209" vType="car" speedFactor="1.06" vaporized=""/>
    <tripinfo id="WE_198" depart="198.00" departLane="1i_0" departPos="4.10" departSpeed="0.00" departDelay="0.00" arrival="293.00" arrivalLane="3o_0" arrivalPos="492.80" arrivalSpeed="9.05" duration="95.00" routeLength="990.53" waitingTime="6.00" waitingCount="1" stopTime="0.00" timeLoss="17.45" rerouteNo="0" devices="tripinfo_WE_198" vType="car" speedFactor="0.91" vaporized=""/>
    <tripinfo id="EW_203" depart="203.00" departLane="4i_0" departPos="4.10" departSpeed="0.00" departDelay="0.00" arrival="295.00" arrivalLane="3o_0" arrivalPos="492.80" arrivalSpeed="10.73" duration="92.00" routeLength="995.90" waitingTime="0.00" waitingCount="0" stopTime="0.00" timeLoss="18.93" rerouteNo="0" devices="tripinfo_EW_203" vType="car" speedFactor="0.97" vaporized=""/>
    <tripinfo id="SN_115" depart="120.00" departLane="3i_0" departPos="10.10" departSpeed="0.00" departDelay="5.00" arrival="300.00" arrivalLane="1o_0" arrivalPos="492.80" arrivalSpeed="10.22" duration="180.00" routeLength="989.70" waitingTime="27.00" waitingCount="4" stopTime="0.00" timeLoss="105.88" rerouteNo="0" devices="tripinfo_SN_115" vType="truck" speedFactor="0.95" vaporized=""/>
    <tripinfo id="WE_200" depart="201.00" departLane="1i_0" departPos="4.10" departSpeed="0.00" departDelay="1.00" arrival="300.00" arrivalLane="3o_0" arrivalPos="492.80" arrivalSpeed="10.15" duration="99.00" routeLength="990.53" waitingTime="3.00" waitingCount="2" stopTime="0.00" timeLoss="21.56" rerouteNo="0" devices="tripinfo_WE_200" vType="car" speedFactor="0.91" vaporized=""/>
    <tripinfo id="WE_202" depart="204.00" departLane="1i_0" departPos="4.10" departSpeed="0.00" departDelay="2.00" arrival="302.00" arrivalLane="3o_0" arrivalPos="492.80" arrivalSpeed="10.58" duration="98.00" routeLength="990.53" waitingTime="1.00" waitingCount="1" stopTime="0.00" timeLoss="28.41" rerouteNo="0" devices="tripinfo_WE_202" vType="car" speedFactor="1.02" vaporized=""/>
    <tripinfo id="EW_218" depart="218.00" departLane="4i_0" departPos="4.10" departSpeed="0.00" departDelay="0.00" arrival="304.00" arrivalLane="1o_0" arrivalPos="492.80" arrivalSpeed="10.45" duration="86.00" routeLength="990.53" waitingTime="0.00" waitingCount="0" stopTime="0.00" timeLoss="13.88" rerouteNo="0" devices="tripinfo_EW_218" vType="car" speedFactor="0.98" vaporized=""/>
    <tripinfo id="NS_212" depart="212.00" departLane="2i_0" departPos="4.10" departSpeed="0.00" departDelay="0.00" arrival="305.00" arrivalLane="3o_0" arrivalPos="492.80" arrivalSpeed="9.54" duration="93.00" routeLength="995.70" waitingTime="4.00" waitingCount="1" stopTime="0.00" timeLoss="18.64" rerouteNo="0" devices="tripinfo_NS_212" vType="car" speedFactor="0.96" vaporized=""/>
    <tripinfo id="SN_119" depart="124.00" departLane="3i_0" departPos="4.10" departSpeed="0.00" departDelay="5.00" arrival="314.00" arrivalLane="1o_0" arrivalPos="492.80" arrivalSpeed="9.40" duration="190.00" routeLength="995.70" waitingTime="30.00" waitingCount="5" stopTime="0.00" timeLoss="108.89" rerouteNo="0" devices="tripinfo_SN_119" vType="car" speedFactor="0.88" vaporized=""/>
    <tripinfo id="WE_214" depart="214.00" departLane="1i_0" departPos="4.10" departSpeed="0.00" departDelay="0.00" arrival="314.00" arrivalLane="4o_0" arrivalPos="492.80" arrivalSpeed="9.95" duration="100.00" routeLength="995.70" waitingTime="9.00" waitingCount="1" stopTime="0.00" timeLoss="27.88" rerouteNo="0" devices="tripinfo_WE_214" vType="car" speedFactor="0.98" vaporized=""/>
    <tripinfo id="NS_219" depart="219.00" departLane="2i_0" departPos="4.10" departSpeed="0.00" departDelay="0.00" arrival="316.00" arrivalLane="1o_0" arrivalPos="492.80" arrivalSpeed="11.04" duration="97.00" routeLength="995.90" waitingTime="1.00" waitingCount="1" stopTime="0.00" timeLoss="26.12" rerouteNo="0" devices="tripinfo_NS_219" vType="car" speedFactor="1.01" vaporized=""/>
    <tripinfo id="WE_215" depart="216.00" departLane="1i_0" departPos="4.10" departSpeed="0.00" departDelay="1.00" arrival="317.00" arrivalLane="4o_0" arrivalPos="492.80" arrivalSpeed="11.32" duration="101.00" routeLength="995.70" waitingTime="8.00" waitingCount="2" stopTime="0.00" timeLoss="32.50" rerouteNo="0" devices="tripinfo_WE_215" vType="car" speedFactor="1.03" vaporized=""/>
    <tripinfo id="SN_131" depart="131.00" departLane="3i_0" departPos="4.10" departSpeed="0.00" departDelay="0.00" arrival="319.00" arrivalLane="4o_0" arrivalPos="492.80" arrivalSpeed="12.84" duration="188.00" routeLength="995.90" waitingTime="28.00" waitingCount="6" stopTime="0.00" timeLoss="127.02" rerouteNo="0" devices="tripinfo_SN_131" vType="car" speedFactor="1.17" vaporized=""/>
    <tripinfo id="WE_220" depart="221.00" departLane="1i_0" departPos="10.10" departSpeed="0.00" departDelay="1.00" arrival="322.00" arrivalLane="3o_0" arrivalPos="492.80" arrivalSpeed="11.01" duration="101.00" routeLength="984.53" waitingTime="4.00" waitingCount="1" stopTime="0.00" timeLoss="33.08" rerouteNo="0" devices="tripinfo_WE_220" vType="truck" speedFactor="1.04" vaporized=""/>
    <tripinfo id="SN_123" depart="127.00" departLane="3i_0" departPos="4.10" departSpeed="0.00" departDelay="4.00" arrival="324.00" arrivalLane="1o_0" arrivalPos="492.80" arrivalSpeed="9.07" duration="197.00" routeLength="995.70" waitingTime="32.00" waitingCount="7" stopTime="0.00" timeLoss="113.90" rerouteNo="0" devices="tripinfo_SN_123" vType="car" speedFactor="0.85" vaporized=""/>
    <tripinfo id="SN_138" depart="138.00" departLane="3i_0" departPos="4.10" departSpeed="0.00" departDelay="0.00" arrival="325.00" arrivalLane="4o_0" arrivalPos="492.80" arrivalSpeed="10.07" duration="187.00" routeLength="995.90" waitingTime="27.00" waitingCount="7" stopTime="0.00" timeLoss="115.92" rerouteNo="0" devices="tripinfo_SN_138" vType="car" speedFactor="1.00" vaporized=""/>