<?xml version="1.0" encoding="UTF-8"?>

<!-- generated on 2024-05-05 17:28:11 by Eclipse SUMO sumo Version 1.19.0
<configuration xmlns:xsi="http://www.w3.org/2001/XMLSchema-instance" xsi:noNamespaceSchemaLocation="http://sumo.dlr.de/xsd/sumoConfiguration.xsd">

    <input>
        <net-file value="twoone.net.xml"/>
        <route-files value="route_gen.rou.xml"/>
    </input>

    <output>
        <tripinfo-output value="tripinfo_epi310.xml"/>
    </output>

    <report>
        <no-warnings value="true"/>
    </report>

    <traci_server>
        <remote-port value="46747"/>
    </traci_server>

</configuration>
-->

<tripinfos xmlns:xsi="http://www.w3.org/2001/XMLSchema-instance" xsi:noNamespaceSchemaLocation="http://sumo.dlr.de/xsd/tripinfo_file.xsd">
    <tripinfo id="NS_1" depart="1.00" departLane="2i_0" departPos="4.10" departSpeed="0.00" departDelay="0.00" arrival="76.00" arrivalLane="4o_0" arrivalPos="492.80" arrivalSpeed="11.48" duration="75.00" routeLength="990.53" waitingTime="0.00" waitingCount="0" stopTime="0.00" timeLoss="8.41" rerouteNo="0" devices="tripinfo_NS_1" vType="car" speedFactor="1.06" vaporized=""/>
    <tripinfo id="WE_9" depart="9.00" departLane="1i_0" departPos="4.10" departSpeed="0.00" departDelay="0.00" arrival="89.00" arrivalLane="4o_0" arrivalPos="492.80" arrivalSpeed="10.47" duration="80.00" routeLength="995.70" waitingTime="0.00" waitingCount="0" stopTime="0.00" timeLoss="9.38" rerouteNo="0" devices="tripinfo_WE_9" vType="car" speedFactor="1.01" vaporized=""/>
    <tripinfo id="NS_8" depart="8.00" departLane="2i_0" departPos="10.10" departSpeed="0.00" departDelay="0.00" arrival="101.00" arrivalLane="3o_0" arrivalPos="492.80" arrivalSpeed="10.41" duration="93.00" routeLength="989.70" waitingTime="1.00" waitingCount="1" stopTime="0.00" timeLoss="19.80" rerouteNo="0" devices="tripinfo_NS_8" vType="truck" speedFactor="0.97" vaporized=""/>
    <tripinfo id="NS_11" depart="12.00" departLane="2i_0" departPos="4.10" departSpeed="0.00" departDelay="1.00" arrival="103.00" arrivalLane="3o_0" arrivalPos="492.80" arrivalSpeed="11.71" duration="91.00" routeLength="995.70" waitingTime="1.00" waitingCount="1" stopTime="0.00" timeLoss="25.38" rerouteNo="0" devices="tripinfo_NS_11" vType="car" speedFactor="1.08" vaporized=""/>
    <tripinfo id="NS_12" depart="15.00" departLane="2i_0" departPos="4.10" departSpeed="0.00" departDelay="3.00" arrival="103.00" arrivalLane="1o_0" arrivalPos="492.80" arrivalSpeed="10.62" duration="88.00" routeLength="995.90" waitingTime="1.00" waitingCount="1" stopTime="0.00" timeLoss="19.28" rerouteNo="0" devices="tripinfo_NS_12" vType="car" speedFactor="1.03" vaporized=""/>
    <tripinfo id="NS_30" depart="30.00" departLane="2i_0" departPos="4.10" departSpeed="0.00" departDelay="0.00" arrival="110.00" arrivalLane="3o_0" arrivalPos="492.80" arrivalSpeed="11.33" duration="80.00" routeLength="995.70" waitingTime="0.00" waitingCount="0" stopTime="0.00" timeLoss="14.98" rerouteNo="0" devices="tripinfo_NS_30" vType="car" speedFactor="1.09" vaporized=""/>
    <tripinfo id="NS_33" depart="33.00" departLane="2i_0" departPos="4.10" departSpeed="0.00" departDelay="0.00" arrival="110.00" arrivalLane="4o_0" arrivalPos="492.80" arrivalSpeed="12.01" duration="77.00" routeLength="990.53" waitingTime="0.00" waitingCount="0" stopTime="0.00" timeLoss="13.71" rerouteNo="0" devices="tripinfo_NS_33" vType="car" speedFactor="1.12" vaporized=""/>
    <tripinfo id="EW_23" depart="23.00" departLane="4i_0" departPos="4.10" departSpeed="0.00" departDelay="0.00" arrival="113.00" arrivalLane="1o_0" arrivalPos="492.80" arrivalSpeed="8.77" duration="90.00" routeLength="990.53" waitingTime="0.00" waitingCount="0" stopTime="0.00" timeLoss="10.32" rerouteNo="0" devices="tripinfo_EW_23" vType="car" speedFactor="0.89" vaporized=""/>
    <tripinfo id="NS_13" depart="18.00" departLane="2i_0" departPos="4.10" departSpeed="0.00" departDelay="5.00" arrival="118.00" arrivalLane="1o_0" arrivalPos="492.80" arrivalSpeed="8.53" duration="100.00" routeLength="995.90" waitingTime="0.00" waitingCount="0" stopTime="0.00" timeLoss="15.06" rerouteNo="0" devices="tripinfo_NS_13" vType="car" speedFactor="0.83" vaporized=""/>
    <tripinfo id="WE_22" depart="22.00" departLane="1i_0" departPos="4.10" departSpeed="0.00" departDelay="0.00" arrival="118.00" arrivalLane="4o_0" arrivalPos="492.80" arrivalSpeed="11.59" duration="96.00" routeLength="995.70" waitingTime="13.00" waitingCount="1" stopTime="0.00" timeLoss="27.66" rerouteNo="0" devices="tripinfo_WE_22" vType="car" speedFactor="1.05" vaporized=""/>
    <tripinfo id="NS_23" depart="23.00" departLane="2i_0" departPos="4.10" departSpeed="0.00" departDelay="0.00" arrival="120.00" arrivalLane="1o_0" arrivalPos="492.80" arrivalSpeed="10.39" duration="97.00" routeLength="995.90" waitingTime="0.00" waitingCount="0" stopTime="0.00" timeLoss="21.27" rerouteNo="0" devices="tripinfo_NS_23" vType="car" speedFactor="0.94" vaporized=""/>
    <tripinfo id="WE_31" depart="31.00" departLane="1i_0" departPos="4.10" departSpeed="0.00" departDelay="0.00" arrival="121.00" arrivalLane="4o_0" arrivalPos="492.80" arrivalSpeed="10.98" duration="90.00" routeLength="995.70" waitingTime="7.00" waitingCount="1" stopTime="0.00" timeLoss="20.76" rerouteNo="0" devices="tripinfo_WE_31" vType="car" speedFactor="1.03" vaporized=""/>
    <tripinfo id="EW_33" depart="33.00" departLane="4i_0" departPos="4.10" departSpeed="0.00" departDelay="0.00" arrival="122.00" arrivalLane="1o_0" arrivalPos="492.80" arrivalSpeed="10.34" duration="89.00" routeLength="990.53" waitingTime="2.00" waitingCount="1" stopTime="0.00" timeLoss="21.28" rerouteNo="0" devices="tripinfo_EW_33" vType="car" speedFactor="1.05" vaporized=""/>
    <tripinfo id="EW_36" depart="36.00" departLane="4i_0" departPos="4.10" departSpeed="0.00" departDelay="0.00" arrival="125.00" arrivalLane="3o_0" arrivalPos="492.80" arrivalSpeed="10.69" duration="89.00" routeLength="995.90" waitingTime="1.00" waitingCount="1" stopTime="0.00" timeLoss="17.64" rerouteNo="0" devices="tripinfo_EW_36" vType="car" speedFactor="0.99" vaporized=""/>
    <tripinfo id="EW_39" depart="39.00" departLane="4i_0" departPos="4.10" departSpeed="0.00" departDelay="0.00" arrival="132.00" arrivalLane="1o_0" arrivalPos="492.80" arrivalSpeed="9.69" duration="93.00" routeLength="990.53" waitingTime="1.00" waitingCount="1" stopTime="0.00" timeLoss="16.95" rerouteNo="0" devices="tripinfo_EW_39" vType="car" speedFactor="0.93" vaporized=""/>
    <tripinfo id="WE_45" depart="45.00" departLane="1i_0" departPos="4.10" departSpeed="0.00" departDelay="0.00" arrival="132.00" arrivalLane="3o_0" arrivalPos="492.80" arrivalSpeed="9.27" duration="87.00" routeLength="990.53" waitingTime="0.00" waitingCount="0" stopTime="0.00" timeLoss="11.92" rerouteNo="0" devices="tripinfo_WE_45" vType="car" speedFactor="0.94" vaporized=""/>
    <tripinfo id="SN_23" depart="23.00" departLane="3i_0" departPos="4.10" departSpeed="0.00" departDelay="0.00" arrival="133.00" arrivalLane="4o_0" arrivalPos="492.80" arrivalSpeed="8.44" duration="110.00" routeLength="995.90" waitingTime="14.00" waitingCount="3" stopTime="0.00" timeLoss="27.26" rerouteNo="0" devices="tripinfo_SN_23" vType="car" speedFactor="0.86" vaporized=""/>
    <tripinfo id="WE_48" depart="48.00" departLane="1i_0" departPos="4.10" departSpeed="0.00" departDelay="0.00" arrival="134.00" arrivalLane="3o_0" arrivalPos="492.80" arrivalSpeed="9.71" duration="86.00" routeLength="990.53" waitingTime="0.00" waitingCount="0" stopTime="0.00" timeLoss="10.79" rerouteNo="0" devices="tripinfo_WE_48" vType="car" speedFactor="0.94" vaporized=""/>
    <tripinfo id="SN_51" depart="51.00" departLane="3i_0" departPos="4.10" departSpeed="0.00" departDelay="0.00" arrival="135.00" arrivalLane="4o_0" arrivalPos="492.80" arrivalSpeed="12.30" duration="84.00" routeLength="995.90" waitingTime="1.00" waitingCount="1" stopTime="0.00" timeLoss="22.15" rerouteNo="0" devices="tripinfo_SN_51" vType="car" speedFactor="1.16" vaporized=""/>
    <tripinfo id="WE_53" depart="53.00" departLane="1i_0" departPos="4.10" departSpeed="0.00" departDelay="0.00" arrival="135.00" arrivalLane="2o_0" arrivalPos="492.80" arrivalSpeed="10.86" duration="82.00" routeLength="995.90" waitingTime="1.00" waitingCount="1" stopTime="0.00" timeLoss="11.68" rerouteNo="0" devices="tripinfo_WE_53" vType="car" speedFactor="1.02" vaporized=""/>
    <tripinfo id="NS_44" depart="44.00" departLane="2i_0" departPos="4.10" departSpeed="0.00" departDelay="0.00" arrival="142.00" arrivalLane="1o_0" arrivalPos="492.80" arrivalSpeed="9.58" duration="98.00" routeLength="995.90" waitingTime="2.00" waitingCount="1" stopTime="0.00" timeLoss="16.98" rerouteNo="0" devices="tripinfo_NS_44" vType="car" speedFactor="0.88" vaporized=""/>
    <tripinfo id="SN_57" depart="57.00" departLane="3i_0" departPos="4.10" departSpeed="0.00" departDelay="0.00" arrival="147.00" arrivalLane="2o_0" arrivalPos="492.80" arrivalSpeed="10.75" duration="90.00" routeLength="990.53" waitingTime="5.00" waitingCount="1" stopTime="0.00" timeLoss="17.34" rerouteNo="0" devices="tripinfo_SN_57" vType="car" speedFactor="0.97" vaporized=""/>
    <tripinfo id="NS_59" depart="59.00" departLane="2i_0" departPos="4.10" departSpeed="0.00" departDelay="0.00" arrival="147.00" arrivalLane="4o_0" arrivalPos="492.80" arrivalSpeed="9.40" duration="88.00" routeLength="990.53" waitingTime="0.00" waitingCount="0" stopTime="0.00" timeLoss="8.93" rerouteNo="0" devices="tripinfo_NS_59" vType="car" speedFactor="0.89" vaporized=""/>
    <tripinfo id="SN_53" depart="54.00" departLane="3i_0" departPos="4.10" departSpeed="0.00" departDelay="1.00" arrival="149.00" arrivalLane="4o_0" arrivalPos="492.80" arrivalSpeed="10.13" duration="95.00" routeLength="995.90" waitingTime="8.00" waitingCount="1" stopTime="0.00" timeLoss="24.75" rerouteNo="0" devices="tripinfo_SN_53" vType="car" speedFactor="1.01" vaporized=""/>
    <tripinfo id="SN_75" depart="75.00" departLane="3i_0" departPos="4.10" departSpeed="0.00" departDelay="0.00" arrival="152.00" arrivalLane="4o_0" arrivalPos="492.80" arrivalSpeed="11.55" duration="77.00" routeLength="995.90" waitingTime="0.00" waitingCount="0" stopTime="0.00" timeLoss="14.48" rerouteNo="0" devices="tripinfo_SN_75" vType="car" speedFactor="1.13" vaporized=""/>
    <tripinfo id="WE_88" depart="88.00" departLane="1i_0" departPos="4.10" departSpeed="0.00" departDelay="0.00" arrival="157.00" arrivalLane="3o_0" arrivalPos="492.80" arrivalSpeed="12.12" duration="69.00" routeLength="990.53" waitingTime="0.00" waitingCount="0" stopTime="0.00" timeLoss="7.94" rerouteNo="0" devices="tripinfo_WE_88" vType="car" speedFactor="1.15" vaporized=""/>
    <tripinfo id="SN_66" depart="66.00" departLane="3i_0" departPos="4.10" departSpeed="0.00" departDelay="0.00" arrival="161.00" arrivalLane="2o_0" arrivalPos="492.80" arrivalSpeed="7.97" duration="95.00" routeLength="990.53" waitingTime="0.00" waitingCount="0" stopTime="0.00" timeLoss="9.10" rerouteNo="0" devices="tripinfo_SN_66" vType="car" speedFactor="0.83" vaporized=""/>
    <tripinfo id="WE_82" depart="82.00" departLane="1i_0" departPos="4.10" departSpeed="0.00" departDelay="0.00" arrival="162.00" arrivalLane="2o_0" arrivalPos="492.80" arrivalSpeed="9.97" duration="80.00" routeLength="995.90" waitingTime="0.00" waitingCount="0" stopTime="0.00" timeLoss="20.00" rerouteNo="0" devices="tripinfo_WE_82" vType="car" speedFactor="1.18" vaporized=""/>
    <tripinfo id="SN_68" depart="69.00" departLane="3i_0" departPos="4.10" departSpeed="0.00" departDelay="1.00" arrival="163.00" arrivalLane="1o_0" arrivalPos="492.80" arrivalSpeed="8.52" duration="94.00" routeLength="995.70" waitingTime="0.00" waitingCount="0" stopTime="0.00" timeLoss="12.77" rerouteNo="0" devices="tripinfo_SN_68" vType="car" speedFactor="0.87" vaporized=""/>
    <tripinfo id="WE_89" depart="91.00" departLane="1i_0" departPos="4.10" departSpeed="0.00" departDelay="2.00" arrival="171.00" arrivalLane="4o_0" arrivalPos="492.80" arrivalSpeed="9.94" duration="80.00" routeLength="995.70" waitingTime="0.00" waitingCount="0" stopTime="0.00" timeLoss="9.32" rerouteNo="0" devices="tripinfo_WE_89" vType="car" speedFactor="1.01" vaporized=""/>
    <tripinfo id="NS_72" depart="72.00" departLane="2i_0" departPos="4.10" departSpeed="0.00" departDelay="0.00" arrival="172.00" arrivalLane="3o_0" arrivalPos="492.80" arrivalSpeed="9.04" duration="100.00" routeLength="995.70" waitingTime="9.00" waitingCount="2" stopTime="0.00" timeLoss="22.80" rerouteNo="0" devices="tripinfo_NS_72" vType="car" speedFactor="0.92" vaporized=""/>
    <tripinfo id="NS_73" depart="75.00" departLane="2i_0" departPos="4.10" departSpeed="0.00" departDelay="2.00" arrival="174.00" arrivalLane="3o_0" arrivalPos="492.80" arrivalSpeed="9.76" duration="99.00" routeLength="995.70" waitingTime="7.00" waitingCount="1" stopTime="0.00" timeLoss="24.03" rerouteNo="0" devices="tripinfo_NS_73" vType="car" speedFactor="0.95" vaporized=""/>
    <tripinfo id="NS_91" depart="91.00" departLane="2i_0" departPos="4.10" departSpeed="0.00" departDelay="0.00" arrival="176.00" arrivalLane="3o_0" arrivalPos="492.80" arrivalSpeed="12.61" duration="85.00" routeLength="995.70" waitingTime="0.00" waitingCount="0" stopTime="0.00" timeLoss="23.83" rerouteNo="0" devices="tripinfo_NS_91" vType="car" speedFactor="1.17" vaporized=""/>
    <tripinfo id="NS_79" depart="79.00" departLane="2i_0" departPos="4.10" departSpeed="0.00" departDelay="0.00" arrival="177.00" arrivalLane="1o_0" arrivalPos="492.80" arrivalSpeed="9.84" duration="98.00" routeLength="995.90" waitingTime="5.00" waitingCount="1" stopTime="0.00" timeLoss="21.99" rerouteNo="0" devices="tripinfo_NS_79" vType="car" speedFactor="0.93" vaporized=""/>
    <tripinfo id="NS_95" depart="95.00" departLane="2i_0" departPos="4.10" departSpeed="0.00" departDelay="0.00" arrival="180.00" arrivalLane="3o_0" arrivalPos="492.80" arrivalSpeed="10.19" duration="85.00" routeLength="995.70" waitingTime="0.00" waitingCount="0" stopTime="0.00" timeLoss="13.41" rerouteNo="0" devices="tripinfo_NS_95" vType="car" speedFactor="0.99" vaporized=""/>
    <tripinfo id="EW_115" depart="115.00" departLane="4i_0" departPos="4.10" departSpeed="0.00" departDelay="0.00" arrival="192.00" arrivalLane="3o_0" arrivalPos="492.80" arrivalSpeed="10.06" duration="77.00" routeLength="995.90" waitingTime="0.00" waitingCount="0" stopTime="0.00" timeLoss="7.81" rerouteNo="0" devices="tripinfo_EW_115" vType="car" speedFactor="1.02" vaporized=""/>
    <tripinfo id="EW_117" depart="118.00" departLane="4i_0" departPos="4.10" departSpeed="0.00" departDelay="1.00" arrival="194.00" arrivalLane="3o_0" arrivalPos="492.80" arrivalSpeed="12.79" duration="76.00" routeLength="995.90" waitingTime="0.00" waitingCount="0" stopTime="0.00" timeLoss="15.44" rerouteNo="0" devices="tripinfo_EW_117" vType="car" speedFactor="1.18" vaporized=""/>
    <tripinfo id="SN_119" depart="119.00" departLane="3i_0" departPos="4.10" departSpeed="0.00" departDelay="0.00" arrival="197.00" arrivalLane="2o_0" arrivalPos="492.80" arrivalSpeed="10.33" duration="78.00" routeLength="990.53" waitingTime="0.00" waitingCount="0" stopTime="0.00" timeLoss="8.96" rerouteNo="0" devices="tripinfo_SN_119" vType="car" speedFactor="1.03" vaporized=""/>
    <tripinfo id="WE_116" depart="116.00" departLane="1i_0" departPos="4.10" departSpeed="0.00" departDelay="0.00" arrival="198.00" arrivalLane="3o_0" arrivalPos="492.80" arrivalSpeed="9.75" duration="82.00" routeLength="990.53" waitingTime="0.00" waitingCount="0" stopTime="0.00" timeLoss="9.79" rerouteNo="0" devices="tripinfo_WE_116" vType="car" speedFactor="0.97" vaporized=""/>
    <tripinfo id="EW_118" depart="121.00" departLane="4i_0" departPos="4.10" departSpeed="0.00" departDelay="3.00" arrival="200.00" arrivalLane="3o_0" arrivalPos="492.80" arrivalSpeed="12.24" duration="79.00" routeLength="995.90" waitingTime="0.00" waitingCount="0" stopTime="0.00" timeLoss="14.40" rerouteNo="0" devices="tripinfo_EW_118" vType="car" speedFactor="1.10" vaporized=""/>
    <tripinfo id="WE_127" depart="127.00" departLane="1i_0" departPos="4.10" departSpeed="0.00" departDelay="0.00" arrival="202.00" arrivalLane="3o_0" arrivalPos="492.80" arrivalSpeed="11.98" duration="75.00" routeLength="990.53" waitingTime="0.00" waitingCount="0" stopTime="0.00" timeLoss="9.99" rerouteNo="0" devices="tripinfo_WE_127" vType="car" speedFactor="1.09" vaporized=""/>
    <tripinfo id="NS_118" depart="118.00" departLane="2i_0" departPos="4.10" departSpeed="0.00" departDelay="0.00" arrival="205.00" arrivalLane="4o_0" arrivalPos="492.80" arrivalSpeed="9.89" duration="87.00" routeLength="990.53" waitingTime="0.00" waitingCount="0" stopTime="0.00" timeLoss="8.23" rerouteNo="0" devices="tripinfo_NS_118" vType="car" speedFactor="0.90" vaporized=""/>
    <tripinfo id="NS_134" depart="135.00" departLane="2i_0" departPos="4.10" departSpeed="0.00" departDelay="1.00" arrival="210.00" arrivalLane="4o_0" arrivalPos="492.80" arrivalSpeed="10.87" duration="75.00" routeLength="990.53" waitingTime="0.00" waitingCount="0" stopTime="0.00" timeLoss="7.34" rerouteNo="0" devices="tripinfo_NS_134" vType="car" speedFactor="1.04" vaporized=""/>
    <tripinfo id="EW_126" depart="126.00" departLane="4i_0" departPos="4.10" departSpeed="0.00" departDelay="0.00" arrival="211.00" arrivalLane="3o_0" arrivalPos="492.80" arrivalSpeed="9.37" duration="85.00" routeLength="995.90" waitingTime="1.00" waitingCount="1" stopTime="0.00" timeLoss="10.46" rerouteNo="0" devices="tripinfo_EW_126" vType="car" speedFactor="0.96" vaporized=""/>
    <tripinfo id="EW_128" depart="129.00" departLane="4i_0" departPos="4.10" departSpeed="0.00" departDelay="1.00" arrival="213.00" arrivalLane="1o_0" arrivalPos="492.80" arrivalSpeed="10.25" duration="84.00" routeLength="990.53" waitingTime="1.00" waitingCount="1" stopTime="0.00" timeLoss="15.97" rerouteNo="0" devices="tripinfo_EW_128" vType="car" speedFactor="1.04" vaporized=""/>
    <tripinfo id="NS_137" depart="137.00" departLane="2i_0" departPos="4.10" departSpeed="0.00" departDelay="0.00" arrival="213.00" arrivalLane="4o_0" arrivalPos="492.80" arrivalSpeed="11.42" duration="76.00" routeLength="990.53" waitingTime="0.00" waitingCount="0" stopTime="0.00" timeLoss="11.23" rerouteNo="0" devices="tripinfo_NS_137" vType="car" speedFactor="1.09" vaporized=""/>
    <tripinfo id="NS_142" depart="142.00" departLane="2i_0" departPos="4.10" departSpeed="0.00" departDelay="0.00" arrival="222.00" arrivalLane="4o_0" arrivalPos="492.80" arrivalSpeed="10.64" duration="80.00" routeLength="990.53" waitingTime="0.00" waitingCount="0" stopTime="0.00" timeLoss="8.84" rerouteNo="0" devices="tripinfo_NS_142" vType="car" speedFactor="1.00" vaporized=""/>
    <tripinfo id="WE_153" depart="153.00" departLane="1i_0" departPos="4.10" departSpeed="0.00" departDelay="0.00" arrival="245.00" arrivalLane="3o_0" arrivalPos="492.80" arrivalSpeed="9.14" duration="92.00" routeLength="990.53" waitingTime="0.00" waitingCount="0" stopTime="0.00" timeLoss="8.96" rerouteNo="0" devices="tripinfo_WE_153" vType="car" speedFactor="0.85" vaporized=""/>
    <tripinfo id="SN_150" depart="150.00" departLane="3i_0" departPos="4.10" departSpeed="0.00" departDelay="0.00" arrival="246.00" arrivalLane="1o_0" arrivalPos="492.80" arrivalSpeed="9.15" duration="96.00" routeLength="995.70" waitingTime="2.00" waitingCount="1" stopTime="0.00" timeLoss="15.05" rerouteNo="0" devices="tripinfo_SN_150" vType="car" speedFactor="0.88" vaporized=""/>
    <tripinfo id="NS_155" depart="155.00" departLane="2i_0" departPos="4.10" departSpeed="0.00" departDelay="0.00" arrival="248.00" arrivalLane="1o_0" arrivalPos="492.80" arrivalSpeed="12.00" duration="93.00" routeLength="995.90" waitingTime="4.00" waitingCount="1" stopTime="0.00" timeLoss="31.84" rerouteNo="0" devices="tripinfo_NS_155" vType="car" speedFactor="1.17" vaporized=""/>
    <tripinfo id="EW_153" depart="153.00" departLane="4i_0" departPos="4.10" departSpeed="0.00" departDelay="0.00" arrival="250.00" arrivalLane="2o_0" arrivalPos="492.80" arrivalSpeed="9.09" duration="97.00" routeLength="995.70" waitingTime="2.00" waitingCount="1" stopTime="0.00" timeLoss="13.70" rerouteNo="0" devices="tripinfo_EW_153" vType="car" speedFactor="0.85" vaporized=""/>
    <tripinfo id="NS_143" depart="147.00" departLane="2i_0" departPos="10.10" departSpeed="0.00" departDelay="4.00" arrival="251.00" arrivalLane="3o_0" arrivalPos="492.80" arrivalSpeed="10.37" duration="104.00" routeLength="989.70" waitingTime="5.00" waitingCount="1" stopTime="0.00" timeLoss="29.16" rerouteNo="0" devices="tripinfo_NS_143" vType="truck" speedFactor="0.95" vaporized=""/>
    <tripinfo id="WE_167" depart="167.00" departLane="1i_0" departPos="4.10" departSpeed="0.00" departDelay="0.00" arrival="252.00" arrivalLane="2o_0" arrivalPos="492.80" arrivalSpeed="9.89" duration="85.00" routeLength="995.90" waitingTime="1.00" waitingCount="1" stopTime="0.00" timeLoss="14.43" rerouteNo="0" devices="tripinfo_WE_167" vType="car" speedFactor="1.00" vaporized=""/>
    <tripinfo id="NS_161" depart="162.00" departLane="2i_0" departPos="4.10" departSpeed="0.00" departDelay="1.00" arrival="255.00" arrivalLane="3o_0" arrivalPos="492.80" arrivalSpeed="10.34" duration="93.00" routeLength="995.70" waitingTime="2.00" waitingCount="1" stopTime="0.00" timeLoss="23.45" rerouteNo="0" devices="tripinfo_NS_161" vType="car" speedFactor="1.02" vaporized=""/>
    <tripinfo id="NS_162" depart="165.00" departLane="2i_0" departPos="4.10" departSpeed="0.00" departDelay="3.00" arrival="257.00" arrivalLane="3o_0" arrivalPos="492.80" arrivalSpeed="11.79" duration="92.00" routeLength="995.70" waitingTime="1.00" waitingCount="1" stopTime="0.00" timeLoss="27.11" rerouteNo="0" devices="tripinfo_NS_162" vType="car" speedFactor="1.10" vaporized=""/>
    <tripinfo id="EW_167" depart="167.00" departLane="4i_0" departPos="10.10" departSpeed="0.00" departDelay="0.00" arrival="263.00" arrivalLane="2o_0" arrivalPos="492.80" arrivalSpeed="10.90" duration="96.00" routeLength="989.70" waitingTime="3.00" waitingCount="1" stopTime="0.00" timeLoss="25.63" rerouteNo="0" devices="tripinfo_EW_167" vType="truck" speedFactor="1.00" vaporized=""/>
    <tripinfo id="SN_172" depart="172.00" departLane="3i_0" departPos="4.10" departSpeed="0.00" departDelay="0.00" arrival="268.00" arrivalLane="1o_0" arrivalPos="492.80" arrivalSpeed="9.55" duration="96.00" routeLength="995.70" waitingTime="4.00" waitingCount="1" stopTime="0.00" timeLoss="17.43" rerouteNo="0" devices="tripinfo_SN_172" vType="car" speedFactor="0.90" vaporized=""/>
    <tripinfo id="NS_183" depart="183.00" departLane="2i_0" departPos="10.10" departSpeed="0.00" departDelay="0.00" arrival="268.00" arrivalLane="3o_0" arrivalPos="492.80" arrivalSpeed="11.12" duration="85.00" routeLength="989.70" waitingTime="0.00" waitingCount="0" stopTime="0.00" timeLoss="15.17" rerouteNo="0" devices="tripinfo_NS_183" vType="truck" speedFactor="1.01" vaporized=""/>
    <tripinfo id="WE_173" depart="173.00" departLane="1i_0" departPos="10.10" departSpeed="0.00" departDelay="0.00" arrival="271.00" arrivalLane="4o_0" arrivalPos="492.80" arrivalSpeed="11.59" duration="98.00" routeLength="989.70" waitingTime="6.00" waitingCount="2" stopTime="0.00" timeLoss="30.86" rerouteNo="0" devices="tripinfo_WE_173" vType="truck" speedFactor="1.07" vaporized=""/>
    <tripinfo id="SN_174" depart="176.00" departLane="3i_0" departPos="4.10" departSpeed="0.00" departDelay="2.00" arrival="277.00" arrivalLane="1o_0" arrivalPos="492.80" arrivalSpeed="11.36" duration="101.00" routeLength="995.70" waitingTime="10.00" waitingCount="3" stopTime="0.00" timeLoss="32.04" rerouteNo="0" devices="tripinfo_SN_174" vType="car" speedFactor="1.02" vaporized=""/>
    <tripinfo id="EW_183" depart="183.00" departLane="4i_0" departPos="10.10" departSpeed="0.00" departDelay="0.00" arrival="278.00" arrivalLane="2o_0" arrivalPos="492.80" arrivalSpeed="11.22" duration="95.00" routeLength="989.70" waitingTime="3.00" waitingCount="1" stopTime="0.00" timeLoss="27.39" rerouteNo="0" devices="tripinfo_EW_183" vType="truck" speedFactor="1.06" vaporized=""/>
    <tripinfo id="NS_200" depart="200.00" departLane="2i_0" departPos="4.10" departSpeed="0.00" departDelay="0.00" arrival="283.00" arrivalLane="3o_0" arrivalPos="492.80" arrivalSpeed="10.29" duration="83.00" routeLength="995.70" waitingTime="1.00" waitingCount="1" stopTime="0.00" timeLoss="15.04" rerouteNo="0" devices="tripinfo_NS_200" vType="car" speedFactor="1.04" vaporized=""/>
    <tripinfo id="NS_187" depart="187.00" departLane="2i_0" departPos="4.10" departSpeed="0.00" departDelay="0.00" arrival="284.00" arrivalLane="1o_0" arrivalPos="492.80" arrivalSpeed="10.43" duration="97.00" routeLength="995.90" waitingTime="5.00" waitingCount="2" stopTime="0.00" timeLoss="25.43" rerouteNo="0" devices="tripinfo_NS_187" vType="car" speedFactor="0.99" vaporized=""/>
    <tripinfo id="NS_201" depart="203.00" departLane="2i_0" departPos="4.10" departSpeed="0.00" departDelay="2.00" arrival="286.00" arrivalLane="1o_0" arrivalPos="492.80" arrivalSpeed="11.14" duration="83.00" routeLength="995.90" waitingTime="0.00" waitingCount="0" stopTime="0.00" timeLoss="13.58" rerouteNo="0" devices="tripinfo_NS_201" vType="car" speedFactor="1.02" vaporized=""/>
    <tripinfo id="NS_217" depart="217.00" departLane="2i_0" departPos="4.10" departSpeed="0.00" departDelay="0.00" arrival="290.00" arrivalLane="4o_0" arrivalPos="492.80" arrivalSpeed="12.00" duration="73.00" routeLength="990.53" waitingTime="0.00" waitingCount="0" stopTime="0.00" timeLoss="7.53" rerouteNo="0" devices="tripinfo_NS_217" vType="car" speedFactor="1.09" vaporized=""/>
    <tripinfo id="NS_220" depart="220.00" departLane="2i_0" departPos="4.10" departSpeed="0.00" departDelay="0.00" arrival="297.00" arrivalLane="4o_0" arrivalPos="492.80" arrivalSpeed="10.86" duration="77.00" routeLength="990.53" waitingTime="0.00" waitingCount="0" stopTime="0.00" timeLoss="8.57" rerouteNo="0" devices="tripinfo_NS_220" vType="car" speedFactor="1.03" vaporized=""/>
    <tripinfo id="NS_222" depart="223.00" departLane="2i_0" departPos="4.10" departSpeed="0.00" departDelay="1.00" arrival="304.00" arrivalLane="3o_0" arrivalPos="492.80" arrivalSpeed="9.96" duration="81.00" routeLength="995.70" waitingTime="0.00" waitingCount="0" stopTime="0.00" timeLoss="9.94" rerouteNo="0" devices="tripinfo_NS_222" vType="car" speedFactor="1.00" vaporized=""/>
    <tripinfo id="WE_175" depart="177.00" departLane="1i_0" departPos="4.10" departSpeed="0.00" departDelay="2.00" arrival="309.00" arrivalLane="4o_0" arrivalPos="492.80" arrivalSpeed="9.97" duration="132.00" routeLength="995.70" waitingTime="31.00" waitingCount="2" stopTime="0.00" timeLoss="58.47" rerouteNo="0" devices="tripinfo_WE_175" vType="car" speedFactor="0.97" vaporized=""/>
    <tripinfo id="WE_212" depart="213.00" departLane="1i_0" departPos="4.10" departSpeed="0.00" departDelay="1.00" arrival="311.00" arrivalLane="4o_0" arrivalPos="492.80" arrivalSpeed="11.53" duration="98.00" routeLength="995.70" waitingTime="14.00" waitingCount="1" stopTime="0.00" timeLoss="30.79" rerouteNo="0" devices="tripinfo_WE_212" vType="car" speedFactor="1.06" vaporized=""/>
    <tripinfo id="WE_188" depart="188.00" departLane="1i_0" departPos="4.10" departSpeed="0.00" departDelay="0.00" arrival="312.00" arrivalLane="2o_0" arrivalPos="492.80" arrivalSpeed="9.59" duration="124.00" routeLength="995.90" waitingTime="27.00" waitingCount="2" stopTime="0.00" timeLoss="48.48" rerouteNo="0" devices="tripinfo_WE_188" vType="car" speedFactor="0.94" vaporized=""/>
    <tripinfo id="NS_232" depart="232.00" departLane="2i_0" departPos="4.10" departSpeed="0.00" departDelay="0.00" arrival="312.00" arrivalLane="1o_0" arrivalPos="492.80" arrivalSpeed="9.93" duration="80.00" routeLength="995.90" waitingTime="0.00" waitingCount="0" stopTime="0.00" timeLoss="8.85" rerouteNo="0" devices="tripinfo_NS_232" vType="car" speedFactor="1.00" vaporized=""/>
    <tripinfo id="WE_214" depart="216.00" departLane="1i_0" departPos="4.10" departSpeed="0.00" departDelay="2.00" arrival="316.00" arrivalLane="2o_0" arrivalPos="492.80" arrivalSpeed="10.70" duration="100.00" routeLength="995.90" waitingTime="11.00" waitingCount="1" stopTime="0.00" timeLoss="27.75" rerouteNo="0" devices="tripinfo_WE_214" vType="car" speedFactor="0.98" vaporized=""/>
    <tripinfo id="WE_192" depart="192.00" departLane="1i_0" departPos="4.10" departSpeed="0.00" departDelay="0.00" arrival="317.00" arrivalLane="3o_0" arrivalPos="492.80" arrivalSpeed="8.98" duration="125.00" routeLength="990.53" waitingTime="25.00" waitingCount="1" stopTime="0.00" timeLoss="45.04" rerouteNo="0" devices="tripinfo_WE_192" vType="car" speedFactor="0.88" vaporized=""/>
    <tripinfo id="SN_178" depart="180.00" departLane="3i_0" departPos="4.10" departSpeed="0.00" departDelay="2.00" arrival="318.00" arrivalLane="2o_0" arrivalPos="492.80" arrivalSpeed="11.95" duration="138.00" routeLength="990.53" waitingTime="44.00" waitingCount="4" stopTime="0.00" timeLoss="72.37" rerouteNo="0" devices="tripinfo_SN_178" vType="car" speedFactor="1.08" vaporized=""/>
    <tripinfo id="NS_240" depart="240.00" departLane="2i_0" departPos="4.10" departSpeed="0.00" departDelay="0.00" arrival="319.00" arrivalLane="4o_0" arrivalPos="492.80" arrivalSpeed="10.96" duration="79.00" routeLength="990.53" waitingTime="0.00" waitingCount="0" stopTime="0.00" timeLoss="8.40" rerouteNo="0" devices="tripinfo_NS_240" vType="car" speedFactor="1.01" vaporized=""/>
    <tripinfo id="EW_203" depart="205.00" departLane="4i_0" departPos="10.10" departSpeed="0.00" departDelay="2.00" arrival="320.00" arrivalLane="3o_0" arrivalPos="492.80" arrivalSpeed="11.04" duration="115.00" routeLength="989.90" waitingTime="25.00" waitingCount="1" stopTime="0.00" timeLoss="45.59" rerouteNo="0" devices="tripinfo_EW_203" vType="truck" speedFactor="1.01" vaporized=""/>