<?xml version="1.0" encoding="UTF-8"?>

<!-- generated on 2024-05-05 18:00:01 by Eclipse SUMO sumo Version 1.19.0
<configuration xmlns:xsi="http://www.w3.org/2001/XMLSchema-instance" xsi:noNamespaceSchemaLocation="http://sumo.dlr.de/xsd/sumoConfiguration.xsd">

    <input>
        <net-file value="twoone.net.xml"/>
        <route-files value="route_gen.rou.xml"/>
    </input>

    <output>
        <tripinfo-output value="tripinfo_epi397.xml"/>
    </output>

    <report>
        <no-warnings value="true"/>
    </report>

    <traci_server>
        <remote-port value="56979"/>
    </traci_server>

</configuration>
-->

<tripinfos xmlns:xsi="http://www.w3.org/2001/XMLSchema-instance" xsi:noNamespaceSchemaLocation="http://sumo.dlr.de/xsd/tripinfo_file.xsd">
    <tripinfo id="WE_0" depart="0.00" departLane="1i_0" departPos="4.10" departSpeed="0.00" departDelay="0.00" arrival="82.00" arrivalLane="4o_0" arrivalPos="492.80" arrivalSpeed="11.50" duration="82.00" routeLength="995.70" waitingTime="1.00" waitingCount="1" stopTime="0.00" timeLoss="14.94" rerouteNo="0" devices="tripinfo_WE_0" vType="car" speedFactor="1.06" vaporized=""/>
    <tripinfo id="NS_0" depart="0.00" departLane="2i_0" departPos="4.10" departSpeed="0.00" departDelay="0.00" arrival="85.00" arrivalLane="3o_0" arrivalPos="492.80" arrivalSpeed="9.87" duration="85.00" routeLength="995.70" waitingTime="0.00" waitingCount="0" stopTime="0.00" timeLoss="9.35" rerouteNo="0" devices="tripinfo_NS_0" vType="car" speedFactor="0.94" vaporized=""/>
    <tripinfo id="SN_1" depart="1.00" departLane="3i_0" departPos="4.10" departSpeed="0.00" departDelay="0.00" arrival="89.00" arrivalLane="2o_0" arrivalPos="492.80" arrivalSpeed="11.18" duration="88.00" routeLength="990.53" waitingTime="8.00" waitingCount="1" stopTime="0.00" timeLoss="17.81" rerouteNo="0" devices="tripinfo_SN_1" vType="car" speedFactor="1.01" vaporized=""/>
    <tripinfo id="EW_15" depart="15.00" departLane="4i_0" departPos="4.10" departSpeed="0.00" departDelay="0.00" arrival="92.00" arrivalLane="1o_0" arrivalPos="492.80" arrivalSpeed="10.62" duration="77.00" routeLength="990.53" waitingTime="0.00" waitingCount="0" stopTime="0.00" timeLoss="9.68" rerouteNo="0" devices="tripinfo_EW_15" vType="car" speedFactor="1.05" vaporized=""/>
    <tripinfo id="SN_5" depart="5.00" departLane="3i_0" departPos="4.10" departSpeed="0.00" departDelay="0.00" arrival="93.00" arrivalLane="4o_0" arrivalPos="492.80" arrivalSpeed="11.95" duration="88.00" routeLength="995.90" waitingTime="5.00" waitingCount="2" stopTime="0.00" timeLoss="22.02" rerouteNo="0" devices="tripinfo_SN_5" vType="car" speedFactor="1.08" vaporized=""/>
    <tripinfo id="WE_22" depart="22.00" departLane="1i_0" departPos="4.10" departSpeed="0.00" departDelay="0.00" arrival="99.00" arrivalLane="2o_0" arrivalPos="492.80" arrivalSpeed="11.43" duration="77.00" routeLength="995.90" waitingTime="0.00" waitingCount="0" stopTime="0.00" timeLoss="11.79" rerouteNo="0" devices="tripinfo_WE_22" vType="car" speedFactor="1.09" vaporized=""/>
    <tripinfo id="SN_6" depart="8.00" departLane="3i_0" departPos="4.10" departSpeed="0.00" departDelay="2.00" arrival="100.00" arrivalLane="4o_0" arrivalPos="492.80" arrivalSpeed="10.77" duration="92.00" routeLength="995.90" waitingTime="3.00" waitingCount="3" stopTime="0.00" timeLoss="23.23" rerouteNo="0" devices="tripinfo_SN_6" vType="car" speedFactor="1.03" vaporized=""/>
    <tripinfo id="NS_12" depart="12.00" departLane="2i_0" departPos="4.10" departSpeed="0.00" departDelay="0.00" arrival="109.00" arrivalLane="1o_0" arrivalPos="492.80" arrivalSpeed="8.77" duration="97.00" routeLength="995.90" waitingTime="0.00" waitingCount="0" stopTime="0.00" timeLoss="11.74" rerouteNo="0" devices="tripinfo_NS_12" vType="car" speedFactor="0.83" vaporized=""/>
    <tripinfo id="EW_24" depart="24.00" departLane="4i_0" departPos="4.10" departSpeed="0.00" departDelay="0.00" arrival="113.00" arrivalLane="2o_0" arrivalPos="492.80" arrivalSpeed="11.61" duration="89.00" routeLength="995.70" waitingTime="8.00" waitingCount="2" stopTime="0.00" timeLoss="21.60" rerouteNo="0" devices="tripinfo_EW_24" vType="car" speedFactor="1.05" vaporized=""/>
    <tripinfo id="NS_18" depart="19.00" departLane="2i_0" departPos="4.10" departSpeed="0.00" departDelay="1.00" arrival="116.00" arrivalLane="1o_0" arrivalPos="492.80" arrivalSpeed="10.34" duration="97.00" routeLength="995.90" waitingTime="6.00" waitingCount="1" stopTime="0.00" timeLoss="21.33" rerouteNo="0" devices="tripinfo_NS_18" vType="car" speedFactor="0.94" vaporized=""/>
    <tripinfo id="NS_16" depart="16.00" departLane="2i_0" departPos="4.10" departSpeed="0.00" departDelay="0.00" arrival="117.00" arrivalLane="3o_0" arrivalPos="492.80" arrivalSpeed="9.08" duration="101.00" routeLength="995.70" waitingTime="7.00" waitingCount="1" stopTime="0.00" timeLoss="20.89" rerouteNo="0" devices="tripinfo_NS_16" vType="car" speedFactor="0.89" vaporized=""/>
    <tripinfo id="NS_26" depart="26.00" departLane="2i_0" departPos="10.10" departSpeed="0.00" departDelay="0.00" arrival="122.00" arrivalLane="1o_0" arrivalPos="492.80" arrivalSpeed="10.38" duration="96.00" routeLength="989.90" waitingTime="1.00" waitingCount="1" stopTime="0.00" timeLoss="22.92" rerouteNo="0" devices="tripinfo_NS_26" vType="truck" speedFactor="0.96" vaporized=""/>
    <tripinfo id="EW_25" depart="27.00" departLane="4i_0" departPos="4.10" departSpeed="0.00" departDelay="2.00" arrival="127.00" arrivalLane="3o_0" arrivalPos="492.80" arrivalSpeed="11.59" duration="100.00" routeLength="995.90" waitingTime="16.00" waitingCount="4" stopTime="0.00" timeLoss="36.90" rerouteNo="0" devices="tripinfo_EW_25" vType="car" speedFactor="1.12" vaporized=""/>
    <tripinfo id="NS_28" depart="30.00" departLane="2i_0" departPos="4.10" departSpeed="0.00" departDelay="2.00" arrival="129.00" arrivalLane="4o_0" arrivalPos="492.80" arrivalSpeed="9.66" duration="99.00" routeLength="990.53" waitingTime="0.00" waitingCount="0" stopTime="0.00" timeLoss="18.33" rerouteNo="0" devices="tripinfo_NS_28" vType="car" speedFactor="0.88" vaporized=""/>
    <tripinfo id="NS_29" depart="32.00" departLane="2i_0" departPos="4.10" departSpeed="0.00" departDelay="3.00" arrival="130.00" arrivalLane="4o_0" arrivalPos="492.80" arrivalSpeed="9.77" duration="98.00" routeLength="990.53" waitingTime="0.00" waitingCount="0" stopTime="0.00" timeLoss="23.46" rerouteNo="0" devices="tripinfo_NS_29" vType="car" speedFactor="0.94" vaporized=""/>
    <tripinfo id="WE_24" depart="24.00" departLane="1i_0" departPos="4.10" departSpeed="0.00" departDelay="0.00" arrival="132.00" arrivalLane="4o_0" arrivalPos="492.80" arrivalSpeed="10.51" duration="108.00" routeLength="995.70" waitingTime="18.00" waitingCount="2" stopTime="0.00" timeLoss="38.94" rerouteNo="0" devices="tripinfo_WE_24" vType="car" speedFactor="1.03" vaporized=""/>
    <tripinfo id="WE_30" depart="30.00" departLane="1i_0" departPos="4.10" departSpeed="0.00" departDelay="0.00" arrival="138.00" arrivalLane="3o_0" arrivalPos="492.80" arrivalSpeed="10.08" duration="108.00" routeLength="990.53" waitingTime="16.00" waitingCount="2" stopTime="0.00" timeLoss="32.97" rerouteNo="0" devices="tripinfo_WE_30" vType="car" speedFactor="0.94" vaporized=""/>
    <tripinfo id="EW_39" depart="39.00" departLane="4i_0" departPos="4.10" departSpeed="0.00" departDelay="0.00" arrival="138.00" arrivalLane="1o_0" arrivalPos="492.80" arrivalSpeed="10.95" duration="99.00" routeLength="990.53" waitingTime="11.00" waitingCount="2" stopTime="0.00" timeLoss="29.11" rerouteNo="0" devices="tripinfo_EW_39" vType="car" speedFactor="1.01" vaporized=""/>
    <tripinfo id="WE_35" depart="35.00" departLane="1i_0" departPos="4.10" departSpeed="0.00" departDelay="0.00" arrival="140.00" arrivalLane="3o_0" arrivalPos="492.80" arrivalSpeed="12.38" duration="105.00" routeLength="990.53" waitingTime="15.00" waitingCount="2" stopTime="0.00" timeLoss="43.95" rerouteNo="0" devices="tripinfo_WE_35" vType="car" speedFactor="1.16" vaporized=""/>
    <tripinfo id="SN_25" depart="25.00" departLane="3i_0" departPos="10.10" departSpeed="0.00" departDelay="0.00" arrival="147.00" arrivalLane="1o_0" arrivalPos="492.80" arrivalSpeed="10.52" duration="122.00" routeLength="989.70" waitingTime="25.00" waitingCount="1" stopTime="0.00" timeLoss="51.17" rerouteNo="0" devices="tripinfo_SN_25" vType="truck" speedFactor="1.00" vaporized=""/>
    <tripinfo id="EW_41" depart="42.00" departLane="4i_0" departPos="4.10" departSpeed="0.00" departDelay="1.00" arrival="147.00" arrivalLane="2o_0" arrivalPos="492.80" arrivalSpeed="10.74" duration="105.00" routeLength="995.70" waitingTime="6.00" waitingCount="2" stopTime="0.00" timeLoss="31.81" rerouteNo="0" devices="tripinfo_EW_41" vType="car" speedFactor="0.97" vaporized=""/>
    <tripinfo id="SN_20" depart="20.00" departLane="3i_0" departPos="4.10" departSpeed="0.00" departDelay="0.00" arrival="148.00" arrivalLane="4o_0" arrivalPos="492.80" arrivalSpeed="8.95" duration="128.00" routeLength="995.90" waitingTime="30.00" waitingCount="2" stopTime="0.00" timeLoss="44.87" rerouteNo="0" devices="tripinfo_SN_20" vType="car" speedFactor="0.86" vaporized=""/>
    <tripinfo id="NS_57" depart="57.00" departLane="2i_0" departPos="10.10" departSpeed="0.00" departDelay="0.00" arrival="150.00" arrivalLane="4o_0" arrivalPos="492.80" arrivalSpeed="10.46" duration="93.00" routeLength="984.53" waitingTime="0.00" waitingCount="0" stopTime="0.00" timeLoss="20.70" rerouteNo="0" devices="tripinfo_NS_57" vType="truck" speedFactor="0.97" vaporized=""/>
    <tripinfo id="NS_63" depart="63.00" departLane="2i_0" departPos="4.10" departSpeed="0.00" departDelay="0.00" arrival="152.00" arrivalLane="4o_0" arrivalPos="492.80" arrivalSpeed="12.75" duration="89.00" routeLength="990.53" waitingTime="0.00" waitingCount="0" stopTime="0.00" timeLoss="27.88" rerouteNo="0" devices="tripinfo_NS_63" vType="car" speedFactor="1.15" vaporized=""/>
    <tripinfo id="NS_79" depart="79.00" departLane="2i_0" departPos="4.10" departSpeed="0.00" departDelay="0.00" arrival="158.00" arrivalLane="4o_0" arrivalPos="492.80" arrivalSpeed="10.80" duration="79.00" routeLength="990.53" waitingTime="0.00" waitingCount="0" stopTime="0.00" timeLoss="8.03" rerouteNo="0" devices="tripinfo_NS_79" vType="car" speedFactor="0.99" vaporized=""/>
    <tripinfo id="NS_82" depart="82.00" departLane="2i_0" departPos="4.10" departSpeed="0.00" departDelay="0.00" arrival="160.00" arrivalLane="4o_0" arrivalPos="492.80" arrivalSpeed="12.76" duration="78.00" routeLength="990.53" waitingTime="0.00" waitingCount="0" stopTime="0.00" timeLoss="17.74" rerouteNo="0" devices="tripinfo_NS_82" vType="car" speedFactor="1.18" vaporized=""/>
    <tripinfo id="SN_38" depart="38.00" departLane="3i_0" departPos="4.10" departSpeed="0.00" departDelay="0.00" arrival="166.00" arrivalLane="1o_0" arrivalPos="492.80" arrivalSpeed="10.58" duration="128.00" routeLength="995.70" waitingTime="30.00" waitingCount="2" stopTime="0.00" timeLoss="58.52" rerouteNo="0" devices="tripinfo_SN_38" vType="car" speedFactor="1.02" vaporized=""/>
    <tripinfo id="WE_42" depart="42.00" departLane="1i_0" departPos="4.10" departSpeed="0.00" departDelay="0.00" arrival="171.00" arrivalLane="4o_0" arrivalPos="492.80" arrivalSpeed="9.56" duration="129.00" routeLength="995.70" waitingTime="23.00" waitingCount="3" stopTime="0.00" timeLoss="49.57" rerouteNo="0" devices="tripinfo_WE_42" vType="car" speedFactor="0.89" vaporized=""/>
    <tripinfo id="WE_48" depart="48.00" departLane="1i_0" departPos="4.10" departSpeed="0.00" departDelay="0.00" arrival="171.00" arrivalLane="3o_0" arrivalPos="492.80" arrivalSpeed="9.94" duration="123.00" routeLength="990.53" waitingTime="22.00" waitingCount="3" stopTime="0.00" timeLoss="46.28" rerouteNo="0" devices="tripinfo_WE_48" vType="car" speedFactor="0.92" vaporized=""/>
    <tripinfo id="EW_42" depart="45.00" departLane="4i_0" departPos="4.10" departSpeed="0.00" departDelay="3.00" arrival="180.00" arrivalLane="2o_0" arrivalPos="492.80" arrivalSpeed="8.63" duration="135.00" routeLength="995.70" waitingTime="17.00" waitingCount="3" stopTime="0.00" timeLoss="48.90" rerouteNo="0" devices="tripinfo_EW_42" vType="car" speedFactor="0.83" vaporized=""/>
    <tripinfo id="NS_83" depart="84.00" departLane="2i_0" departPos="4.10" departSpeed="0.00" departDelay="1.00" arrival="185.00" arrivalLane="3o_0" arrivalPos="492.80" arrivalSpeed="11.24" duration="101.00" routeLength="995.70" waitingTime="22.00" waitingCount="1" stopTime="0.00" timeLoss="36.68" rerouteNo="0" devices="tripinfo_NS_83" vType="car" speedFactor="1.10" vaporized=""/>
    <tripinfo id="NS_116" depart="116.00" departLane="2i_0" departPos="4.10" departSpeed="0.00" departDelay="0.00" arrival="204.00" arrivalLane="4o_0" arrivalPos="492.80" arrivalSpeed="9.55" duration="88.00" routeLength="990.53" waitingTime="0.00" waitingCount="0" stopTime="0.00" timeLoss="9.93" rerouteNo="0" devices="tripinfo_NS_116" vType="car" speedFactor="0.90" vaporized=""/>
    <tripinfo id="SN_47" depart="47.00" departLane="3i_0" departPos="4.10" departSpeed="0.00" departDelay="0.00" arrival="207.00" arrivalLane="2o_0" arrivalPos="492.80" arrivalSpeed="9.23" duration="160.00" routeLength="990.53" waitingTime="48.00" waitingCount="3" stopTime="0.00" timeLoss="78.95" rerouteNo="0" devices="tripinfo_SN_47" vType="car" speedFactor="0.87" vaporized=""/>
    <tripinfo id="SN_58" depart="58.00" departLane="3i_0" departPos="4.10" departSpeed="0.00" departDelay="0.00" arrival="209.00" arrivalLane="2o_0" arrivalPos="492.80" arrivalSpeed="11.28" duration="151.00" routeLength="990.53" waitingTime="44.00" waitingCount="4" stopTime="0.00" timeLoss="88.14" rerouteNo="0" devices="tripinfo_SN_58" vType="car" speedFactor="1.13" vaporized=""/>
    <tripinfo id="WE_59" depart="59.00" departLane="1i_0" departPos="4.10" departSpeed="0.00" departDelay="0.00" arrival="209.00" arrivalLane="4o_0" arrivalPos="492.80" arrivalSpeed="10.06" duration="150.00" routeLength="995.70" waitingTime="53.00" waitingCount="2" stopTime="0.00" timeLoss="74.02" rerouteNo="0" devices="tripinfo_WE_59" vType="car" speedFactor="0.93" vaporized=""/>
    <tripinfo id="EW_81" depart="82.00" departLane="4i_0" departPos="10.10" departSpeed="0.00" departDelay="1.00" arrival="211.00" arrivalLane="3o_0" arrivalPos="492.80" arrivalSpeed="10.68" duration="129.00" routeLength="989.90" waitingTime="32.00" waitingCount="2" stopTime="0.00" timeLoss="57.08" rerouteNo="0" devices="tripinfo_EW_81" vType="truck" speedFactor="0.99" vaporized=""/>
    <tripinfo id="NS_132" depart="132.00" departLane="2i_0" departPos="4.10" departSpeed="0.00" departDelay="0.00" arrival="211.00" arrivalLane="4o_0" arrivalPos="492.80" arrivalSpeed="11.01" duration="79.00" routeLength="990.53" waitingTime="0.00" waitingCount="0" stopTime="0.00" timeLoss="14.32" rerouteNo="0" devices="tripinfo_NS_132" vType="car" speedFactor="1.10" vaporized=""/>
    <tripinfo id="WE_90" depart="90.00" departLane="1i_0" departPos="4.10" departSpeed="0.00" departDelay="0.00" arrival="213.00" arrivalLane="4o_0" arrivalPos="492.80" arrivalSpeed="10.28" duration="123.00" routeLength="995.70" waitingTime="35.00" waitingCount="2" stopTime="0.00" timeLoss="54.46" rerouteNo="0" devices="tripinfo_WE_90" vType="car" speedFactor="1.03" vaporized=""/>
    <tripinfo id="WE_96" depart="96.00" departLane="1i_0" departPos="4.10" departSpeed="0.00" departDelay="0.00" arrival="214.00" arrivalLane="3o_0" arrivalPos="492.80" arrivalSpeed="10.83" duration="118.00" routeLength="990.53" waitingTime="30.00" waitingCount="2" stopTime="0.00" timeLoss="50.33" rerouteNo="0" devices="tripinfo_WE_96" vType="car" speedFactor="1.04" vaporized=""/>
    <tripinfo id="WE_105" depart="105.00" departLane="1i_0" departPos="4.10" departSpeed="0.00" departDelay="0.00" arrival="215.00" arrivalLane="4o_0" arrivalPos="492.80" arrivalSpeed="10.87" duration="110.00" routeLength="995.70" waitingTime="25.00" waitingCount="2" stopTime="0.00" timeLoss="44.81" rerouteNo="0" devices="tripinfo_WE_105" vType="car" speedFactor="1.09" vaporized=""/>
    <tripinfo id="WE_110" depart="110.00" departLane="1i_0" departPos="4.10" departSpeed="0.00" departDelay="0.00" arrival="220.00" arrivalLane="3o_0" arrivalPos="492.80" arrivalSpeed="10.67" duration="110.00" routeLength="990.53" waitingTime="17.00" waitingCount="2" stopTime="0.00" timeLoss="38.88" rerouteNo="0" devices="tripinfo_WE_110" vType="car" speedFactor="1.00" vaporized=""/>
    <tripinfo id="NS_145" depart="147.00" departLane="2i_0" departPos="4.10" departSpeed="0.00" departDelay="2.00" arrival="225.00" arrivalLane="1o_0" arrivalPos="492.80" arrivalSpeed="10.25" duration="78.00" routeLength="995.90" waitingTime="0.00" waitingCount="0" stopTime="0.00" timeLoss="8.21" rerouteNo="0" devices="tripinfo_NS_145" vType="car" speedFactor="1.02" vaporized=""/>
    <tripinfo id="WE_117" depart="117.00" departLane="1i_0" departPos="4.10" departSpeed="0.00" departDelay="0.00" arrival="229.00" arrivalLane="4o_0" arrivalPos="492.80" arrivalSpeed="8.46" duration="112.00" routeLength="995.70" waitingTime="8.00" waitingCount="2" stopTime="0.00" timeLoss="31.18" rerouteNo="0" devices="tripinfo_WE_117" vType="car" speedFactor="0.88" vaporized=""/>
    <tripinfo id="SN_62" depart="62.00" departLane="3i_0" departPos="4.10" departSpeed="0.00" departDelay="0.00" arrival="231.00" arrivalLane="4o_0" arrivalPos="492.80" arrivalSpeed="12.21" duration="169.00" routeLength="995.90" waitingTime="55.00" waitingCount="4" stopTime="0.00" timeLoss="108.54" rerouteNo="0" devices="tripinfo_SN_62" vType="car" speedFactor="1.18" vaporized=""/>
    <tripinfo id="WE_121" depart="122.00" departLane="1i_0" departPos="4.10" departSpeed="0.00" departDelay="1.00" arrival="232.00" arrivalLane="2o_0" arrivalPos="492.80" arrivalSpeed="9.37" duration="110.00" routeLength="995.90" waitingTime="4.00" waitingCount="2" stopTime="0.00" timeLoss="27.15" rerouteNo="0" devices="tripinfo_WE_121" vType="car" speedFactor="0.85" vaporized=""/>
    <tripinfo id="EW_93" depart="93.00" departLane="4i_0" departPos="4.10" departSpeed="0.00" departDelay="0.00" arrival="234.00" arrivalLane="2o_0" arrivalPos="492.80" arrivalSpeed="11.50" duration="141.00" routeLength="995.70" waitingTime="40.00" waitingCount="4" stopTime="0.00" timeLoss="75.77" rerouteNo="0" devices="tripinfo_EW_93" vType="car" speedFactor="1.09" vaporized=""/>
    <tripinfo id="SN_66" depart="66.00" departLane="3i_0" departPos="4.10" departSpeed="0.00" departDelay="0.00" arrival="241.00" arrivalLane="2o_0" arrivalPos="492.80" arrivalSpeed="9.94" duration="175.00" routeLength="990.53" waitingTime="61.00" waitingCount="4" stopTime="0.00" timeLoss="104.81" rerouteNo="0" devices="tripinfo_SN_66" vType="car" speedFactor="1.01" vaporized=""/>
    <tripinfo id="EW_119" depart="119.00" departLane="4i_0" departPos="4.10" departSpeed="0.00" departDelay="0.00" arrival="251.00" arrivalLane="1o_0" arrivalPos="492.80" arrivalSpeed="8.58" duration="132.00" routeLength="990.53" waitingTime="21.00" waitingCount="3" stopTime="0.00" timeLoss="48.57" rerouteNo="0" devices="tripinfo_EW_119" vType="car" speedFactor="0.85" vaporized=""/>
    <tripinfo id="NS_165" depart="165.00" departLane="2i_0" departPos="4.10" departSpeed="0.00" departDelay="0.00" arrival="252.00" arrivalLane="1o_0" arrivalPos="492.80" arrivalSpeed="10.40" duration="87.00" routeLength="995.90" waitingTime="0.00" waitingCount="0" stopTime="0.00" timeLoss="17.16" rerouteNo="0" devices="tripinfo_NS_165" vType="car" speedFactor="1.02" vaporized=""/>
    <tripinfo id="NS_167" depart="168.00" departLane="2i_0" departPos="4.10" departSpeed="0.00" departDelay="1.00" arrival="252.00" arrivalLane="4o_0" arrivalPos="492.80" arrivalSpeed="9.84" duration="84.00" routeLength="990.53" waitingTime="0.00" waitingCount="0" stopTime="0.00" timeLoss="8.85" rerouteNo="0" devices="tripinfo_NS_167" vType="car" speedFactor="0.94" vaporized=""/>
    <tripinfo id="NS_174" depart="174.00" departLane="2i_0" departPos="4.10" departSpeed="0.00" departDelay="0.00" arrival="259.00" arrivalLane="4o_0" arrivalPos="492.80" arrivalSpeed="9.27" duration="85.00" routeLength="990.53" waitingTime="0.00" waitingCount="0" stopTime="0.00" timeLoss="7.91" rerouteNo="0" devices="tripinfo_NS_174" vType="car" speedFactor="0.91" vaporized=""/>
    <tripinfo id="WE_160" depart="160.00" departLane="1i_0" departPos="10.10" departSpeed="0.00" departDelay="0.00" arrival="262.00" arrivalLane="4o_0" arrivalPos="492.80" arrivalSpeed="11.53" duration="102.00" routeLength="989.70" waitingTime="9.00" waitingCount="1" stopTime="0.00" timeLoss="33.37" rerouteNo="0" devices="tripinfo_WE_160" vType="truck" speedFactor="1.04" vaporized=""/>
    <tripinfo id="WE_165" depart="166.00" departLane="1i_0" departPos="4.10" departSpeed="0.00" departDelay="1.00" arrival="264.00" arrivalLane="4o_0" arrivalPos="492.80" arrivalSpeed="11.39" duration="98.00" routeLength="995.70" waitingTime="7.00" waitingCount="1" stopTime="0.00" timeLoss="34.30" rerouteNo="0" devices="tripinfo_WE_165" vType="car" speedFactor="1.12" vaporized=""/>
    <tripinfo id="SN_69" depart="69.00" departLane="3i_0" departPos="4.10" departSpeed="0.00" departDelay="0.00" arrival="267.00" arrivalLane="2o_0" arrivalPos="492.80" arrivalSpeed="12.77" duration="198.00" routeLength="990.53" waitingTime="85.00" waitingCount="5" stopTime="0.00" timeLoss="137.90" rerouteNo="0" devices="tripinfo_SN_69" vType="car" speedFactor="1.17" vaporized=""/>
    <tripinfo id="NS_187" depart="187.00" departLane="2i_0" departPos="10.10" departSpeed="0.00" departDelay="0.00" arrival="269.00" arrivalLane="1o_0" arrivalPos="492.80" arrivalSpeed="10.90" duration="82.00" routeLength="989.90" waitingTime="0.00" waitingCount="0" stopTime="0.00" timeLoss="12.42" rerouteNo="0" devices="tripinfo_NS_187" vType="truck" speedFactor="1.01" vaporized=""/>
    <tripinfo id="EW_126" depart="126.00" departLane="4i_0" departPos="4.10" departSpeed="0.00" departDelay="0.00" arrival="271.00" arrivalLane="2o_0" arrivalPos="492.80" arrivalSpeed="11.73" duration="145.00" routeLength="995.70" waitingTime="47.00" waitingCount="4" stopTime="0.00" timeLoss="84.58" rerouteNo="0" devices="tripinfo_EW_126" vType="car" speedFactor="1.17" vaporized=""/>
    <tripinfo id="NS_189" depart="192.00" departLane="2i_0" departPos="10.10" departSpeed="0.00" departDelay="3.00" arrival="283.00" arrivalLane="1o_0" arrivalPos="492.80" arrivalSpeed="10.74" duration="91.00" routeLength="989.90" waitingTime="0.00" waitingCount="0" stopTime="0.00" timeLoss="17.72" rerouteNo="0" devices="tripinfo_NS_189" vType="truck" speedFactor="0.97" vaporized=""/>
    <tripinfo id="SN_79" depart="79.00" departLane="3i_0" departPos="4.10" departSpeed="0.00" departDelay="0.00" arrival="285.00" arrivalLane="1o_0" arrivalPos="492.80" arrivalSpeed="10.69" duration="206.00" routeLength="995.70" waitingTime="90.00" waitingCount="6" stopTime="0.00" timeLoss="136.31" rerouteNo="0" devices="tripinfo_SN_79" vType="car" speedFactor="1.02" vaporized=""/>
    <tripinfo id="NS_196" depart="196.00" departLane="2i_0" departPos="4.10" departSpeed="0.00" departDelay="0.00" arrival="287.00" arrivalLane="1o_0" arrivalPos="492.80" arrivalSpeed="10.68" duration="91.00" routeLength="995.90" waitingTime="1.00" waitingCount="1" stopTime="0.00" timeLoss="23.37" rerouteNo="0" devices="tripinfo_NS_196" vType="car" speedFactor="1.06" vaporized=""/>
    <tripinfo id="NS_204" depart="204.00" departLane="2i_0" departPos="4.10" departSpeed="0.00" departDelay="0.00" arrival="290.00" arrivalLane="4o_0" arrivalPos="492.80" arrivalSpeed="9.72" duration="86.00" routeLength="990.53" waitingTime="0.00" waitingCount="0" stopTime="0.00" timeLoss="14.20" rerouteNo="0" devices="tripinfo_NS_204" vType="car" speedFactor="0.98" vaporized=""/>
    <tripinfo id="EW_141" depart="141.00" departLane="4i_0" departPos="4.10" departSpeed="0.00" departDelay="0.00" arrival="291.00" arrivalLane="2o_0" arrivalPos="492.80" arrivalSpeed="9.07" duration="150.00" routeLength="995.70" waitingTime="44.00" waitingCount="4" stopTime="0.00" timeLoss="70.95" rerouteNo="0" devices="tripinfo_EW_141" vType="car" speedFactor="0.90" vaporized=""/>
    <tripinfo id="NS_206" depart="209.00" departLane="2i_0" departPos="4.10" departSpeed="0.00" departDelay="3.00" arrival="292.00" arrivalLane="1o_0" arrivalPos="492.80" arrivalSpeed="10.88" duration="83.00" routeLength="995.90" waitingTime="0.00" waitingCount="0" stopTime="0.00" timeLoss="11.01" rerouteNo="0" devices="tripinfo_NS_206" vType="car" speedFactor="0.98" vaporized=""/>
    <tripinfo id="NS_214" depart="214.00" departLane="2i_0" departPos="4.10" departSpeed="0.00" departDelay="0.00" arrival="294.00" arrivalLane="1o_0" arrivalPos="492.80" arrivalSpeed="11.37" duration="80.00" routeLength="995.90" waitingTime="0.00" waitingCount="0" stopTime="0.00" timeLoss="11.24" rerouteNo="0" devices="tripinfo_NS_214" vType="car" speedFactor="1.03" vaporized=""/>
    <tripinfo id="WE_211" depart="211.00" departLane="1i_0" departPos="4.10" departSpeed="0.00" departDelay="0.00" arrival="301.00" arrivalLane="4o_0" arrivalPos="492.80" arrivalSpeed="10.86" duration="90.00" routeLength="995.70" waitingTime="8.00" waitingCount="1" stopTime="0.00" timeLoss="19.76" rerouteNo="0" devices="tripinfo_WE_211" vType="car" speedFactor="1.01" vaporized=""/>
    <tripinfo id="NS_224" depart="224.00" departLane="2i_0" departPos="4.10" departSpeed="0.00" departDelay="0.00" arrival="304.00" arrivalLane="4o_0" arrivalPos="492.80" arrivalSpeed="10.31" duration="80.00" routeLength="990.53" waitingTime="0.00" waitingCount="0" stopTime="0.00" timeLoss="9.41" rerouteNo="0" devices="tripinfo_NS_224" vType="car" speedFactor="1.00" vaporized=""/>
    <tripinfo id="EW_215" depart="215.00" departLane="4i_0" departPos="4.10" departSpeed="0.00" departDelay="0.00" arrival="305.00" arrivalLane="2o_0" arrivalPos="492.80" arrivalSpeed="10.03" duration="90.00" routeLength="995.70" waitingTime="3.00" waitingCount="1" stopTime="0.00" timeLoss="18.61" rerouteNo="0" devices="tripinfo_EW_215" vType="car" speedFactor="1.00" vaporized=""/>
    <tripinfo id="WE_220" depart="220.00" departLane="1i_0" departPos="4.10" departSpeed="0.00" departDelay="0.00" arrival="307.00" arrivalLane="2o_0" arrivalPos="492.80" arrivalSpeed="10.06" duration="87.00" routeLength="995.90" waitingTime="0.00" waitingCount="0" stopTime="0.00" timeLoss="16.94" rerouteNo="0" devices="tripinfo_WE_220" vType="car" speedFactor="1.02" vaporized=""/>
    <tripinfo id="WE_230" depart="230.00" departLane="1i_0" departPos="4.10" departSpeed="0.00" departDelay="0.00" arrival="310.00" arrivalLane="2o_0" arrivalPos="492.80" arrivalSpeed="9.93" duration="80.00" routeLength="995.90" waitingTime="0.00" waitingCount="0" stopTime="0.00" timeLoss="9.62" rerouteNo="0" devices="tripinfo_WE_230" vType="car" speedFactor="1.01" vaporized=""/>
    <tripinfo id="NS_232" depart="232.00" departLane="2i_0" departPos="4.10" departSpeed="0.00" departDelay="0.00" arrival="311.00" arrivalLane="3o_0" arrivalPos="492.80" arrivalSpeed="10.48" duration="79.00" routeLength="995.70" waitingTime="0.00" waitingCount="0" stopTime="0.00" timeLoss="9.56" rerouteNo="0" devices="tripinfo_NS_232" vType="car" speedFactor="1.02" vaporized=""/>
    <tripinfo id="WE_236" depart="236.00" departLane="1i_0" departPos="4.10" departSpeed="0.00" departDelay="0.00" arrival="313.00" arrivalLane="2o_0" arrivalPos="492.80" arrivalSpeed="11.13" duration="77.00" routeLength="995.90" waitingTime="0.00" waitingCount="0" stopTime="0.00" timeLoss="7.53" rerouteNo="0" devices="tripinfo_WE_236" vType="car" speedFactor="1.02" vaporized=""/>
    <tripinfo id="WE_247" depart="247.00" departLane="1i_0" departPos="4.10" departSpeed="0.00" departDelay="0.00" arrival="324.00" arrivalLane="2o_0" arrivalPos="492.80" arrivalSpeed="10.95" duration="77.00" routeLength="995.90" waitingTime="0.00" waitingCount="0" stopTime="0.00" timeLoss="9.79" rerouteNo="0" devices="tripinfo_WE_247" vType="car" speedFactor="1.06" vaporized=""/>
    <tripinfo id="WE_242" depart="242.00" departLane="1i_0" departPos="4.10" departSpeed="0.00" departDelay="0.00" arrival="329.00" arrivalLane="4o_0" arrivalPos="492.80" arrivalSpeed="9.29" duration="87.00" routeLength="995.70" waitingTime="0.00" waitingCount="0" stopTime="0.00" timeLoss="10.32" rerouteNo="0" devices="tripinfo_WE_242" vType="car" speedFactor="0.92" vaporized=""/>
    <tripinfo id="NS_253" depart="253.00" departLane="2i_0" departPos="4.10" departSpeed="0.00" departDelay="0.00" arrival="330.00" arrivalLane="3o_0" arrivalPos="492.80" arrivalSpeed="11.78" duration="77.00" routeLength="995.70" waitingTime="0.00" waitingCount="0" stopTime="0.00" timeLoss="12.30" rerouteNo="0" devices="tripinfo_NS_253" vType="car" speedFactor="1.10" vaporized=""/>
    <tripinfo id="NS_238" depart="238.00" departLane="2i_0" departPos="4.10" departSpeed="0.00" departDelay="0.00" arrival="332.00" arrivalLane="1o_0" arrivalPos="492.80" arrivalSpeed="8.45" duration="94.00" routeLength="995.90" waitingTime="0.00" waitingCount="0" stopTime="0.00" timeLoss="8.87" rerouteNo="0" devices="tripinfo_NS_238" vType="car" speedFactor="0.83" vaporized=""/>
    <tripinfo id="WE_249" depart="249.00" departLane="1i_0" departPos="4.10" departSpeed="0.00" departDelay="0.00" arrival="337.00" arrivalLane="2o_0" arrivalPos="492.80" arrivalSpeed="8.87" duration="88.00" routeLength="995.90" waitingTime="0.00" waitingCount="0" stopTime="0.00" timeLoss="9.28" rerouteNo="0" devices="tripinfo_WE_249" vType="car" speedFactor="0.91" vaporized=""/>
    <tripinfo id="WE_267" depart="269.00" departLane="1i_0" departPos="4.10" departSpeed="0.00" departDelay="2.00" arrival="343.00" arrivalLane="2o_0" arrivalPos="492.80" arrivalSpeed="11.47" duration="74.00" routeLength="995.90" waitingTime="0.00" waitingCount="0" stopTime="0.00" timeLoss="8.27" rerouteNo="0" devices="tripinfo_WE_267" vType="car" speedFactor="1.07" vaporized=""/>