<?xml version="1.0" encoding="UTF-8"?>

<!-- generated on 2024-05-05 16:01:02 by Eclipse SUMO sumo Version 1.19.0
<configuration xmlns:xsi="http://www.w3.org/2001/XMLSchema-instance" xsi:noNamespaceSchemaLocation="http://sumo.dlr.de/xsd/sumoConfiguration.xsd">

    <input>
        <net-file value="twoone.net.xml"/>
        <route-files value="route_gen.rou.xml"/>
    </input>

    <output>
        <tripinfo-output value="tripinfo_epi77.xml"/>
    </output>

    <report>
        <no-warnings value="true"/>
    </report>

    <traci_server>
        <remote-port value="55919"/>
    </traci_server>

</configuration>
-->

<tripinfos xmlns:xsi="http://www.w3.org/2001/XMLSchema-instance" xsi:noNamespaceSchemaLocation="http://sumo.dlr.de/xsd/tripinfo_file.xsd">
    <tripinfo id="NS_4" depart="4.00" departLane="2i_0" departPos="4.10" departSpeed="0.00" departDelay="0.00" arrival="79.00" arrivalLane="3o_0" arrivalPos="492.80" arrivalSpeed="11.69" duration="75.00" routeLength="995.70" waitingTime="0.00" waitingCount="0" stopTime="0.00" timeLoss="9.30" rerouteNo="0" devices="tripinfo_NS_4" vType="car" speedFactor="1.08" vaporized=""/>
    <tripinfo id="WE_2" depart="2.00" departLane="1i_0" departPos="4.10" departSpeed="0.00" departDelay="0.00" arrival="83.00" arrivalLane="4o_0" arrivalPos="492.80" arrivalSpeed="10.73" duration="81.00" routeLength="995.70" waitingTime="2.00" waitingCount="1" stopTime="0.00" timeLoss="13.97" rerouteNo="0" devices="tripinfo_WE_2" vType="car" speedFactor="1.06" vaporized=""/>
    <tripinfo id="EW_2" depart="2.00" departLane="4i_0" departPos="10.10" departSpeed="0.00" departDelay="0.00" arrival="87.00" arrivalLane="1o_0" arrivalPos="492.80" arrivalSpeed="10.36" duration="85.00" routeLength="984.53" waitingTime="0.00" waitingCount="0" stopTime="0.00" timeLoss="12.11" rerouteNo="0" devices="tripinfo_EW_2" vType="truck" speedFactor="0.97" vaporized=""/>
    <tripinfo id="SN_5" depart="5.00" departLane="3i_0" departPos="4.10" departSpeed="0.00" departDelay="0.00" arrival="90.00" arrivalLane="1o_0" arrivalPos="492.80" arrivalSpeed="11.21" duration="85.00" routeLength="995.70" waitingTime="2.00" waitingCount="1" stopTime="0.00" timeLoss="16.38" rerouteNo="0" devices="tripinfo_SN_5" vType="car" speedFactor="1.03" vaporized=""/>
    <tripinfo id="NS_10" depart="10.00" departLane="2i_0" departPos="4.10" departSpeed="0.00" departDelay="0.00" arrival="97.00" arrivalLane="1o_0" arrivalPos="492.80" arrivalSpeed="9.73" duration="87.00" routeLength="995.90" waitingTime="0.00" waitingCount="0" stopTime="0.00" timeLoss="11.00" rerouteNo="0" devices="tripinfo_NS_10" vType="car" speedFactor="0.94" vaporized=""/>
    <tripinfo id="WE_7" depart="7.00" departLane="1i_0" departPos="4.10" departSpeed="0.00" departDelay="0.00" arrival="101.00" arrivalLane="4o_0" arrivalPos="492.80" arrivalSpeed="10.40" duration="94.00" routeLength="995.70" waitingTime="7.00" waitingCount="1" stopTime="0.00" timeLoss="26.32" rerouteNo="0" devices="tripinfo_WE_7" vType="car" speedFactor="1.05" vaporized=""/>
    <tripinfo id="SN_10" depart="10.00" departLane="3i_0" departPos="4.10" departSpeed="0.00" departDelay="0.00" arrival="104.00" arrivalLane="1o_0" arrivalPos="492.80" arrivalSpeed="9.31" duration="94.00" routeLength="995.70" waitingTime="0.00" waitingCount="0" stopTime="0.00" timeLoss="11.45" rerouteNo="0" devices="tripinfo_SN_10" vType="car" speedFactor="0.86" vaporized=""/>
    <tripinfo id="NS_12" depart="13.00" departLane="2i_0" departPos="4.10" departSpeed="0.00" departDelay="1.00" arrival="106.00" arrivalLane="1o_0" arrivalPos="492.80" arrivalSpeed="10.43" duration="93.00" routeLength="995.90" waitingTime="0.00" waitingCount="0" stopTime="0.00" timeLoss="23.91" rerouteNo="0" devices="tripinfo_NS_12" vType="car" speedFactor="1.03" vaporized=""/>
    <tripinfo id="EW_3" depart="6.00" departLane="4i_0" departPos="4.10" departSpeed="0.00" departDelay="3.00" arrival="108.00" arrivalLane="1o_0" arrivalPos="492.80" arrivalSpeed="10.54" duration="102.00" routeLength="990.53" waitingTime="7.00" waitingCount="3" stopTime="0.00" timeLoss="31.95" rerouteNo="0" devices="tripinfo_EW_3" vType="car" speedFactor="1.01" vaporized=""/>
    <tripinfo id="WE_10" depart="10.00" departLane="1i_0" departPos="4.10" departSpeed="0.00" departDelay="0.00" arrival="110.00" arrivalLane="2o_0" arrivalPos="492.80" arrivalSpeed="8.66" duration="100.00" routeLength="995.90" waitingTime="7.00" waitingCount="1" stopTime="0.00" timeLoss="19.89" rerouteNo="0" devices="tripinfo_WE_10" vType="car" speedFactor="0.89" vaporized=""/>
    <tripinfo id="WE_14" depart="14.00" departLane="1i_0" departPos="4.10" departSpeed="0.00" departDelay="0.00" arrival="112.00" arrivalLane="2o_0" arrivalPos="492.80" arrivalSpeed="12.36" duration="98.00" routeLength="995.90" waitingTime="9.00" waitingCount="3" stopTime="0.00" timeLoss="34.42" rerouteNo="0" devices="tripinfo_WE_14" vType="car" speedFactor="1.12" vaporized=""/>
    <tripinfo id="EW_11" depart="12.00" departLane="4i_0" departPos="4.10" departSpeed="0.00" departDelay="1.00" arrival="113.00" arrivalLane="2o_0" arrivalPos="492.80" arrivalSpeed="11.59" duration="101.00" routeLength="995.70" waitingTime="3.00" waitingCount="2" stopTime="0.00" timeLoss="36.26" rerouteNo="0" devices="tripinfo_EW_11" vType="car" speedFactor="1.09" vaporized=""/>
    <tripinfo id="EW_6" depart="9.00" departLane="4i_0" departPos="4.10" departSpeed="0.00" departDelay="3.00" arrival="118.00" arrivalLane="3o_0" arrivalPos="492.80" arrivalSpeed="8.18" duration="109.00" routeLength="995.90" waitingTime="6.00" waitingCount="2" stopTime="0.00" timeLoss="23.79" rerouteNo="0" devices="tripinfo_EW_6" vType="car" speedFactor="0.83" vaporized=""/>
    <tripinfo id="WE_19" depart="19.00" departLane="1i_0" departPos="4.10" departSpeed="0.00" departDelay="0.00" arrival="119.00" arrivalLane="2o_0" arrivalPos="492.80" arrivalSpeed="10.15" duration="100.00" routeLength="995.90" waitingTime="3.00" waitingCount="1" stopTime="0.00" timeLoss="28.42" rerouteNo="0" devices="tripinfo_WE_19" vType="car" speedFactor="0.99" vaporized=""/>
    <tripinfo id="SN_28" depart="28.00" departLane="3i_0" departPos="4.10" departSpeed="0.00" departDelay="0.00" arrival="121.00" arrivalLane="1o_0" arrivalPos="492.80" arrivalSpeed="9.70" duration="93.00" routeLength="995.70" waitingTime="0.00" waitingCount="0" stopTime="0.00" timeLoss="12.62" rerouteNo="0" devices="tripinfo_SN_28" vType="car" speedFactor="0.88" vaporized=""/>
    <tripinfo id="SN_33" depart="33.00" departLane="3i_0" departPos="4.10" departSpeed="0.00" departDelay="0.00" arrival="121.00" arrivalLane="2o_0" arrivalPos="492.80" arrivalSpeed="12.54" duration="88.00" routeLength="990.53" waitingTime="6.00" waitingCount="1" stopTime="0.00" timeLoss="26.57" rerouteNo="0" devices="tripinfo_SN_33" vType="car" speedFactor="1.16" vaporized=""/>
    <tripinfo id="NS_38" depart="38.00" departLane="2i_0" departPos="4.10" departSpeed="0.00" departDelay="0.00" arrival="122.00" arrivalLane="4o_0" arrivalPos="492.80" arrivalSpeed="10.09" duration="84.00" routeLength="990.53" waitingTime="0.00" waitingCount="0" stopTime="0.00" timeLoss="11.62" rerouteNo="0" devices="tripinfo_NS_38" vType="car" speedFactor="0.97" vaporized=""/>
    <tripinfo id="NS_32" depart="32.00" departLane="2i_0" departPos="4.10" departSpeed="0.00" departDelay="0.00" arrival="123.00" arrivalLane="1o_0" arrivalPos="492.80" arrivalSpeed="9.38" duration="91.00" routeLength="995.90" waitingTime="0.00" waitingCount="0" stopTime="0.00" timeLoss="15.88" rerouteNo="0" devices="tripinfo_NS_32" vType="car" speedFactor="0.94" vaporized=""/>
    <tripinfo id="WE_33" depart="33.00" departLane="1i_0" departPos="4.10" departSpeed="0.00" departDelay="0.00" arrival="123.00" arrivalLane="3o_0" arrivalPos="492.80" arrivalSpeed="9.63" duration="90.00" routeLength="990.53" waitingTime="0.00" waitingCount="0" stopTime="0.00" timeLoss="14.29" rerouteNo="0" devices="tripinfo_WE_33" vType="car" speedFactor="0.94" vaporized=""/>
    <tripinfo id="WE_38" depart="38.00" departLane="1i_0" departPos="4.10" departSpeed="0.00" departDelay="0.00" arrival="124.00" arrivalLane="4o_0" arrivalPos="492.80" arrivalSpeed="11.03" duration="86.00" routeLength="995.70" waitingTime="0.00" waitingCount="0" stopTime="0.00" timeLoss="15.70" rerouteNo="0" devices="tripinfo_WE_38" vType="car" speedFactor="1.01" vaporized=""/>
    <tripinfo id="NS_35" depart="35.00" departLane="2i_0" departPos="4.10" departSpeed="0.00" departDelay="0.00" arrival="125.00" arrivalLane="1o_0" arrivalPos="492.80" arrivalSpeed="10.69" duration="90.00" routeLength="995.90" waitingTime="0.00" waitingCount="0" stopTime="0.00" timeLoss="20.19" rerouteNo="0" devices="tripinfo_NS_35" vType="car" speedFactor="1.02" vaporized=""/>
    <tripinfo id="EW_13" depart="15.00" departLane="4i_0" departPos="4.10" departSpeed="0.00" departDelay="2.00" arrival="127.00" arrivalLane="1o_0" arrivalPos="492.80" arrivalSpeed="11.13" duration="112.00" routeLength="990.53" waitingTime="7.00" waitingCount="2" stopTime="0.00" timeLoss="44.26" rerouteNo="0" devices="tripinfo_EW_13" vType="car" speedFactor="1.05" vaporized=""/>
    <tripinfo id="NS_40" depart="41.00" departLane="2i_0" departPos="4.10" departSpeed="0.00" departDelay="1.00" arrival="133.00" arrivalLane="1o_0" arrivalPos="492.80" arrivalSpeed="8.69" duration="92.00" routeLength="995.90" waitingTime="0.00" waitingCount="0" stopTime="0.00" timeLoss="12.65" rerouteNo="0" devices="tripinfo_NS_40" vType="car" speedFactor="0.89" vaporized=""/>
    <tripinfo id="EW_28" depart="28.00" departLane="4i_0" departPos="4.10" departSpeed="0.00" departDelay="0.00" arrival="135.00" arrivalLane="1o_0" arrivalPos="492.80" arrivalSpeed="9.75" duration="107.00" routeLength="990.53" waitingTime="7.00" waitingCount="2" stopTime="0.00" timeLoss="31.05" rerouteNo="0" devices="tripinfo_EW_28" vType="car" speedFactor="0.93" vaporized=""/>
    <tripinfo id="WE_49" depart="49.00" departLane="1i_0" departPos="4.10" departSpeed="0.00" departDelay="0.00" arrival="135.00" arrivalLane="3o_0" arrivalPos="492.80" arrivalSpeed="10.17" duration="86.00" routeLength="990.53" waitingTime="2.00" waitingCount="1" stopTime="0.00" timeLoss="11.36" rerouteNo="0" devices="tripinfo_WE_49" vType="car" speedFactor="0.95" vaporized=""/>
    <tripinfo id="EW_52" depart="52.00" departLane="4i_0" departPos="4.10" departSpeed="0.00" departDelay="0.00" arrival="137.00" arrivalLane="1o_0" arrivalPos="492.80" arrivalSpeed="12.49" duration="85.00" routeLength="990.53" waitingTime="0.00" waitingCount="0" stopTime="0.00" timeLoss="22.28" rerouteNo="0" devices="tripinfo_EW_52" vType="car" speedFactor="1.13" vaporized=""/>
    <tripinfo id="SN_41" depart="41.00" departLane="3i_0" departPos="4.10" departSpeed="0.00" departDelay="0.00" arrival="141.00" arrivalLane="2o_0" arrivalPos="492.80" arrivalSpeed="9.12" duration="100.00" routeLength="990.53" waitingTime="1.00" waitingCount="1" stopTime="0.00" timeLoss="14.88" rerouteNo="0" devices="tripinfo_SN_41" vType="car" speedFactor="0.83" vaporized=""/>
    <tripinfo id="SN_48" depart="48.00" departLane="3i_0" departPos="4.10" departSpeed="0.00" departDelay="0.00" arrival="142.00" arrivalLane="4o_0" arrivalPos="492.80" arrivalSpeed="9.03" duration="94.00" routeLength="995.90" waitingTime="0.00" waitingCount="0" stopTime="0.00" timeLoss="16.48" rerouteNo="0" devices="tripinfo_SN_48" vType="car" speedFactor="0.92" vaporized=""/>
    <tripinfo id="SN_42" depart="44.00" departLane="3i_0" departPos="4.10" departSpeed="0.00" departDelay="2.00" arrival="143.00" arrivalLane="1o_0" arrivalPos="492.80" arrivalSpeed="8.89" duration="99.00" routeLength="995.70" waitingTime="0.00" waitingCount="0" stopTime="0.00" timeLoss="17.55" rerouteNo="0" devices="tripinfo_SN_42" vType="car" speedFactor="0.87" vaporized=""/>
    <tripinfo id="SN_59" depart="59.00" departLane="3i_0" departPos="4.10" departSpeed="0.00" departDelay="0.00" arrival="143.00" arrivalLane="4o_0" arrivalPos="492.80" arrivalSpeed="12.01" duration="84.00" routeLength="995.90" waitingTime="0.00" waitingCount="0" stopTime="0.00" timeLoss="23.99" rerouteNo="0" devices="tripinfo_SN_59" vType="car" speedFactor="1.18" vaporized=""/>
    <tripinfo id="EW_66" depart="66.00" departLane="4i_0" departPos="4.10" departSpeed="0.00" departDelay="0.00" arrival="143.00" arrivalLane="2o_0" arrivalPos="492.80" arrivalSpeed="11.76" duration="77.00" routeLength="995.70" waitingTime="0.00" waitingCount="0" stopTime="0.00" timeLoss="16.24" rerouteNo="0" devices="tripinfo_EW_66" vType="car" speedFactor="1.17" vaporized=""/>
    <tripinfo id="WE_63" depart="63.00" departLane="1i_0" departPos="4.10" departSpeed="0.00" departDelay="0.00" arrival="145.00" arrivalLane="4o_0" arrivalPos="492.80" arrivalSpeed="12.67" duration="82.00" routeLength="995.70" waitingTime="1.00" waitingCount="1" stopTime="0.00" timeLoss="20.59" rerouteNo="0" devices="tripinfo_WE_63" vType="car" speedFactor="1.15" vaporized=""/>
    <tripinfo id="NS_59" depart="59.00" departLane="2i_0" departPos="4.10" departSpeed="0.00" departDelay="0.00" arrival="147.00" arrivalLane="1o_0" arrivalPos="492.80" arrivalSpeed="9.17" duration="88.00" routeLength="995.90" waitingTime="0.00" waitingCount="0" stopTime="0.00" timeLoss="11.76" rerouteNo="0" devices="tripinfo_NS_59" vType="car" speedFactor="0.93" vaporized=""/>
    <tripinfo id="NS_79" depart="79.00" departLane="2i_0" departPos="4.10" departSpeed="0.00" departDelay="0.00" arrival="148.00" arrivalLane="4o_0" arrivalPos="492.80" arrivalSpeed="12.37" duration="69.00" routeLength="990.53" waitingTime="0.00" waitingCount="0" stopTime="0.00" timeLoss="9.02" rerouteNo="0" devices="tripinfo_NS_79" vType="car" speedFactor="1.18" vaporized=""/>
    <tripinfo id="WE_65" depart="66.00" departLane="1i_0" departPos="4.10" departSpeed="0.00" departDelay="1.00" arrival="150.00" arrivalLane="2o_0" arrivalPos="492.80" arrivalSpeed="10.39" duration="84.00" routeLength="995.90" waitingTime="0.00" waitingCount="0" stopTime="0.00" timeLoss="12.99" rerouteNo="0" devices="tripinfo_WE_65" vType="car" speedFactor="1.01" vaporized=""/>
    <tripinfo id="SN_76" depart="76.00" departLane="3i_0" departPos="4.10" departSpeed="0.00" departDelay="0.00" arrival="154.00" arrivalLane="2o_0" arrivalPos="492.80" arrivalSpeed="10.72" duration="78.00" routeLength="990.53" waitingTime="0.00" waitingCount="0" stopTime="0.00" timeLoss="8.55" rerouteNo="0" devices="tripinfo_SN_76" vType="car" speedFactor="1.02" vaporized=""/>
    <tripinfo id="EW_76" depart="76.00" departLane="4i_0" departPos="4.10" departSpeed="0.00" departDelay="0.00" arrival="159.00" arrivalLane="2o_0" arrivalPos="492.80" arrivalSpeed="10.33" duration="83.00" routeLength="995.70" waitingTime="0.00" waitingCount="0" stopTime="0.00" timeLoss="11.13" rerouteNo="0" devices="tripinfo_EW_76" vType="car" speedFactor="0.99" vaporized=""/>
    <tripinfo id="SN_82" depart="82.00" departLane="3i_0" departPos="4.10" departSpeed="0.00" departDelay="0.00" arrival="160.00" arrivalLane="1o_0" arrivalPos="492.80" arrivalSpeed="11.68" duration="78.00" routeLength="995.70" waitingTime="1.00" waitingCount="1" stopTime="0.00" timeLoss="13.28" rerouteNo="0" devices="tripinfo_SN_82" vType="car" speedFactor="1.10" vaporized=""/>
    <tripinfo id="WE_79" depart="79.00" departLane="1i_0" departPos="10.10" departSpeed="0.00" departDelay="0.00" arrival="170.00" arrivalLane="3o_0" arrivalPos="492.80" arrivalSpeed="10.89" duration="91.00" routeLength="984.53" waitingTime="0.00" waitingCount="0" stopTime="0.00" timeLoss="19.30" rerouteNo="0" devices="tripinfo_WE_79" vType="truck" speedFactor="0.99" vaporized=""/>
    <tripinfo id="EW_98" depart="98.00" departLane="4i_0" departPos="4.10" departSpeed="0.00" departDelay="0.00" arrival="181.00" arrivalLane="2o_0" arrivalPos="492.80" arrivalSpeed="10.67" duration="83.00" routeLength="995.70" waitingTime="1.00" waitingCount="1" stopTime="0.00" timeLoss="13.74" rerouteNo="0" devices="tripinfo_EW_98" vType="car" speedFactor="1.03" vaporized=""/>
    <tripinfo id="SN_103" depart="103.00" departLane="3i_0" departPos="4.10" departSpeed="0.00" departDelay="0.00" arrival="182.00" arrivalLane="4o_0" arrivalPos="492.80" arrivalSpeed="11.58" duration="79.00" routeLength="995.90" waitingTime="1.00" waitingCount="1" stopTime="0.00" timeLoss="13.46" rerouteNo="0" devices="tripinfo_SN_103" vType="car" speedFactor="1.09" vaporized=""/>
    <tripinfo id="WE_95" depart="97.00" departLane="1i_0" departPos="4.10" departSpeed="0.00" departDelay="2.00" arrival="185.00" arrivalLane="3o_0" arrivalPos="492.80" arrivalSpeed="8.73" duration="88.00" routeLength="990.53" waitingTime="0.00" waitingCount="0" stopTime="0.00" timeLoss="9.44" rerouteNo="0" devices="tripinfo_WE_95" vType="car" speedFactor="0.90" vaporized=""/>
    <tripinfo id="WE_100" depart="100.00" departLane="1i_0" departPos="4.10" departSpeed="0.00" departDelay="0.00" arrival="186.00" arrivalLane="3o_0" arrivalPos="492.80" arrivalSpeed="10.16" duration="86.00" routeLength="990.53" waitingTime="0.00" waitingCount="0" stopTime="0.00" timeLoss="12.55" rerouteNo="0" devices="tripinfo_WE_100" vType="car" speedFactor="0.96" vaporized=""/>
    <tripinfo id="NS_110" depart="113.00" departLane="2i_0" departPos="4.10" departSpeed="0.00" departDelay="3.00" arrival="195.00" arrivalLane="3o_0" arrivalPos="492.80" arrivalSpeed="11.10" duration="82.00" routeLength="995.70" waitingTime="1.00" waitingCount="1" stopTime="0.00" timeLoss="13.87" rerouteNo="0" devices="tripinfo_NS_110" vType="car" speedFactor="1.04" vaporized=""/>
    <tripinfo id="NS_120" depart="121.00" departLane="2i_0" departPos="4.10" departSpeed="0.00" departDelay="1.00" arrival="196.00" arrivalLane="4o_0" arrivalPos="492.80" arrivalSpeed="11.38" duration="75.00" routeLength="990.53" waitingTime="0.00" waitingCount="0" stopTime="0.00" timeLoss="7.50" rerouteNo="0" devices="tripinfo_NS_120" vType="car" speedFactor="1.04" vaporized=""/>
    <tripinfo id="NS_124" depart="124.00" departLane="2i_0" departPos="4.10" departSpeed="0.00" departDelay="0.00" arrival="205.00" arrivalLane="4o_0" arrivalPos="492.80" arrivalSpeed="12.08" duration="81.00" routeLength="990.53" waitingTime="3.00" waitingCount="1" stopTime="0.00" timeLoss="15.60" rerouteNo="0" devices="tripinfo_NS_124" vType="car" speedFactor="1.09" vaporized=""/>
    <tripinfo id="NS_125" depart="127.00" departLane="2i_0" departPos="4.10" departSpeed="0.00" departDelay="2.00" arrival="211.00" arrivalLane="3o_0" arrivalPos="492.80" arrivalSpeed="10.35" duration="84.00" routeLength="995.70" waitingTime="0.00" waitingCount="0" stopTime="0.00" timeLoss="12.96" rerouteNo="0" devices="tripinfo_NS_125" vType="car" speedFactor="1.00" vaporized=""/>
    <tripinfo id="WE_126" depart="127.00" departLane="1i_0" departPos="4.10" departSpeed="0.00" departDelay="1.00" arrival="214.00" arrivalLane="2o_0" arrivalPos="492.80" arrivalSpeed="9.96" duration="87.00" routeLength="995.90" waitingTime="0.00" waitingCount="0" stopTime="0.00" timeLoss="8.37" rerouteNo="0" devices="tripinfo_WE_126" vType="car" speedFactor="0.90" vaporized=""/>
    <tripinfo id="EW_135" depart="135.00" departLane="4i_0" departPos="4.10" departSpeed="0.00" departDelay="0.00" arrival="217.00" arrivalLane="3o_0" arrivalPos="492.80" arrivalSpeed="10.69" duration="82.00" routeLength="995.90" waitingTime="1.00" waitingCount="1" stopTime="0.00" timeLoss="12.18" rerouteNo="0" devices="tripinfo_EW_135" vType="car" speedFactor="1.02" vaporized=""/>
    <tripinfo id="SN_127" depart="127.00" departLane="3i_0" departPos="4.10" departSpeed="0.00" departDelay="0.00" arrival="218.00" arrivalLane="2o_0" arrivalPos="492.80" arrivalSpeed="9.62" duration="91.00" routeLength="990.53" waitingTime="0.00" waitingCount="0" stopTime="0.00" timeLoss="10.82" rerouteNo="0" devices="tripinfo_SN_127" vType="car" speedFactor="0.88" vaporized=""/>
    <tripinfo id="WE_138" depart="138.00" departLane="1i_0" departPos="4.10" departSpeed="0.00" departDelay="0.00" arrival="219.00" arrivalLane="3o_0" arrivalPos="492.80" arrivalSpeed="11.40" duration="81.00" routeLength="990.53" waitingTime="0.00" waitingCount="0" stopTime="0.00" timeLoss="16.38" rerouteNo="0" devices="tripinfo_WE_138" vType="car" speedFactor="1.10" vaporized=""/>
    <tripinfo id="SN_129" depart="130.00" departLane="3i_0" departPos="4.10" departSpeed="0.00" departDelay="1.00" arrival="222.00" arrivalLane="4o_0" arrivalPos="492.80" arrivalSpeed="8.71" duration="92.00" routeLength="995.90" waitingTime="0.00" waitingCount="0" stopTime="0.00" timeLoss="9.09" rerouteNo="0" devices="tripinfo_SN_129" vType="car" speedFactor="0.85" vaporized=""/>
    <tripinfo id="SN_139" depart="139.00" departLane="3i_0" departPos="4.10" departSpeed="0.00" departDelay="0.00" arrival="223.00" arrivalLane="1o_0" arrivalPos="492.80" arrivalSpeed="9.88" duration="84.00" routeLength="995.70" waitingTime="0.00" waitingCount="0" stopTime="0.00" timeLoss="12.56" rerouteNo="0" devices="tripinfo_SN_139" vType="car" speedFactor="1.00" vaporized=""/>
    <tripinfo id="WE_128" depart="130.00" departLane="1i_0" departPos="4.10" departSpeed="0.00" departDelay="2.00" arrival="224.00" arrivalLane="2o_0" arrivalPos="492.80" arrivalSpeed="8.67" duration="94.00" routeLength="995.90" waitingTime="0.00" waitingCount="0" stopTime="0.00" timeLoss="10.59" rerouteNo="0" devices="tripinfo_WE_128" vType="car" speedFactor="0.85" vaporized=""/>
    <tripinfo id="SN_130" depart="133.00" departLane="3i_0" departPos="4.10" departSpeed="0.00" departDelay="3.00" arrival="224.00" arrivalLane="4o_0" arrivalPos="492.80" arrivalSpeed="12.69" duration="91.00" routeLength="995.90" waitingTime="1.00" waitingCount="1" stopTime="0.00" timeLoss="29.94" rerouteNo="0" devices="tripinfo_SN_130" vType="car" speedFactor="1.17" vaporized=""/>
    <tripinfo id="NS_151" depart="151.00" departLane="2i_0" departPos="4.10" departSpeed="0.00" departDelay="0.00" arrival="225.00" arrivalLane="3o_0" arrivalPos="492.80" arrivalSpeed="12.19" duration="74.00" routeLength="995.70" waitingTime="0.00" waitingCount="0" stopTime="0.00" timeLoss="10.14" rerouteNo="0" devices="tripinfo_NS_151" vType="car" speedFactor="1.12" vaporized=""/>
    <tripinfo id="NS_139" depart="139.00" departLane="2i_0" departPos="4.10" departSpeed="0.00" departDelay="0.00" arrival="226.00" arrivalLane="4o_0" arrivalPos="492.80" arrivalSpeed="10.24" duration="87.00" routeLength="990.53" waitingTime="6.00" waitingCount="1" stopTime="0.00" timeLoss="16.43" rerouteNo="0" devices="tripinfo_NS_139" vType="car" speedFactor="1.00" vaporized=""/>
    <tripinfo id="SN_145" depart="145.00" departLane="3i_0" departPos="4.10" departSpeed="0.00" departDelay="0.00" arrival="230.00" arrivalLane="1o_0" arrivalPos="492.80" arrivalSpeed="11.89" duration="85.00" routeLength="995.70" waitingTime="2.00" waitingCount="2" stopTime="0.00" timeLoss="22.66" rerouteNo="0" devices="tripinfo_SN_145" vType="car" speedFactor="1.14" vaporized=""/>
    <tripinfo id="SN_141" depart="142.00" departLane="3i_0" departPos="4.10" departSpeed="0.00" departDelay="1.00" arrival="231.00" arrivalLane="2o_0" arrivalPos="492.80" arrivalSpeed="9.19" duration="89.00" routeLength="990.53" waitingTime="0.00" waitingCount="0" stopTime="0.00" timeLoss="10.66" rerouteNo="0" devices="tripinfo_SN_141" vType="car" speedFactor="0.90" vaporized=""/>
    <tripinfo id="SN_149" depart="149.00" departLane="3i_0" departPos="4.10" departSpeed="0.00" departDelay="0.00" arrival="236.00" arrivalLane="2o_0" arrivalPos="492.80" arrivalSpeed="10.91" duration="87.00" routeLength="990.53" waitingTime="0.00" waitingCount="0" stopTime="0.00" timeLoss="18.08" rerouteNo="0" devices="tripinfo_SN_149" vType="car" speedFactor="1.02" vaporized=""/>
    <tripinfo id="WE_150" depart="150.00" departLane="1i_0" departPos="4.10" departSpeed="0.00" departDelay="0.00" arrival="236.00" arrivalLane="3o_0" arrivalPos="492.80" arrivalSpeed="9.93" duration="86.00" routeLength="990.53" waitingTime="3.00" waitingCount="1" stopTime="0.00" timeLoss="13.15" rerouteNo="0" devices="tripinfo_WE_150" vType="car" speedFactor="0.97" vaporized=""/>
    <tripinfo id="SN_150" depart="152.00" departLane="3i_0" departPos="4.10" departSpeed="0.00" departDelay="2.00" arrival="241.00" arrivalLane="1o_0" arrivalPos="492.80" arrivalSpeed="11.14" duration="89.00" routeLength="995.70" waitingTime="2.00" waitingCount="1" stopTime="0.00" timeLoss="23.55" rerouteNo="0" devices="tripinfo_SN_150" vType="car" speedFactor="1.08" vaporized=""/>
    <tripinfo id="EW_153" depart="153.00" departLane="4i_0" departPos="4.10" departSpeed="0.00" departDelay="0.00" arrival="241.00" arrivalLane="2o_0" arrivalPos="492.80" arrivalSpeed="10.57" duration="88.00" routeLength="995.70" waitingTime="1.00" waitingCount="1" stopTime="0.00" timeLoss="16.22" rerouteNo="0" devices="tripinfo_EW_153" vType="car" speedFactor="0.99" vaporized=""/>
    <tripinfo id="NS_153" depart="154.00" departLane="2i_0" departPos="4.10" departSpeed="0.00" departDelay="1.00" arrival="242.00" arrivalLane="3o_0" arrivalPos="492.80" arrivalSpeed="10.16" duration="88.00" routeLength="995.70" waitingTime="1.00" waitingCount="1" stopTime="0.00" timeLoss="12.63" rerouteNo="0" devices="tripinfo_NS_153" vType="car" speedFactor="0.94" vaporized=""/>
    <tripinfo id="EW_158" depart="158.00" departLane="4i_0" departPos="4.10" departSpeed="0.00" departDelay="0.00" arrival="248.00" arrivalLane="2o_0" arrivalPos="492.80" arrivalSpeed="9.03" duration="90.00" routeLength="995.70" waitingTime="0.00" waitingCount="0" stopTime="0.00" timeLoss="11.60" rerouteNo="0" devices="tripinfo_EW_158" vType="car" speedFactor="0.91" vaporized=""/>
    <tripinfo id="SN_152" depart="155.00" departLane="3i_0" departPos="4.10" departSpeed="0.00" departDelay="3.00" arrival="250.00" arrivalLane="2o_0" arrivalPos="492.80" arrivalSpeed="10.64" duration="95.00" routeLength="990.53" waitingTime="1.00" waitingCount="1" stopTime="0.00" timeLoss="25.09" rerouteNo="0" devices="tripinfo_SN_152" vType="car" speedFactor="1.02" vaporized=""/>
    <tripinfo id="NS_165" depart="165.00" departLane="2i_0" departPos="4.10" departSpeed="0.00" departDelay="0.00" arrival="250.00" arrivalLane="4o_0" arrivalPos="492.80" arrivalSpeed="10.05" duration="85.00" routeLength="990.53" waitingTime="0.00" waitingCount="0" stopTime="0.00" timeLoss="12.06" rerouteNo="0" devices="tripinfo_NS_165" vType="car" speedFactor="0.97" vaporized=""/>
    <tripinfo id="WE_160" depart="160.00" departLane="1i_0" departPos="4.10" departSpeed="0.00" departDelay="0.00" arrival="251.00" arrivalLane="4o_0" arrivalPos="492.80" arrivalSpeed="11.52" duration="91.00" routeLength="995.70" waitingTime="6.00" waitingCount="1" stopTime="0.00" timeLoss="23.13" rerouteNo="0" devices="tripinfo_WE_160" vType="car" speedFactor="1.04" vaporized=""/>
    <tripinfo id="WE_162" depart="163.00" departLane="1i_0" departPos="4.10" departSpeed="0.00" departDelay="1.00" arrival="252.00" arrivalLane="2o_0" arrivalPos="492.80" arrivalSpeed="11.30" duration="89.00" routeLength="995.90" waitingTime="5.00" waitingCount="1" stopTime="0.00" timeLoss="19.63" rerouteNo="0" devices="tripinfo_WE_162" vType="car" speedFactor="1.02" vaporized=""/>
    <tripinfo id="WE_168" depart="168.00" departLane="1i_0" departPos="4.10" departSpeed="0.00" departDelay="0.00" arrival="259.00" arrivalLane="2o_0" arrivalPos="492.80" arrivalSpeed="11.27" duration="91.00" routeLength="995.90" waitingTime="2.00" waitingCount="1" stopTime="0.00" timeLoss="24.15" rerouteNo="0" devices="tripinfo_WE_168" vType="car" speedFactor="1.06" vaporized=""/>
    <tripinfo id="EW_179" depart="179.00" departLane="4i_0" departPos="4.10" departSpeed="0.00" departDelay="0.00" arrival="260.00" arrivalLane="3o_0" arrivalPos="492.80" arrivalSpeed="10.16" duration="81.00" routeLength="995.90" waitingTime="0.00" waitingCount="0" stopTime="0.00" timeLoss="8.27" rerouteNo="0" devices="tripinfo_EW_179" vType="car" speedFactor="0.98" vaporized=""/>
    <tripinfo id="SN_156" depart="158.00" departLane="3i_0" departPos="10.10" departSpeed="0.00" departDelay="2.00" arrival="261.00" arrivalLane="4o_0" arrivalPos="492.80" arrivalSpeed="10.19" duration="103.00" routeLength="989.90" waitingTime="3.00" waitingCount="2" stopTime="0.00" timeLoss="28.01" rerouteNo="0" devices="tripinfo_SN_156" vType="truck" speedFactor="0.94" vaporized=""/>
    <tripinfo id="WE_172" depart="172.00" departLane="1i_0" departPos="4.10" departSpeed="0.00" departDelay="0.00" arrival="269.00" arrivalLane="2o_0" arrivalPos="492.80" arrivalSpeed="10.36" duration="97.00" routeLength="995.90" waitingTime="3.00" waitingCount="2" stopTime="0.00" timeLoss="24.63" rerouteNo="0" devices="tripinfo_WE_172" vType="car" speedFactor="0.98" vaporized=""/>
    <tripinfo id="SN_158" depart="162.00" departLane="3i_0" departPos="4.10" departSpeed="0.00" departDelay="4.00" arrival="270.00" arrivalLane="1o_0" arrivalPos="492.80" arrivalSpeed="9.22" duration="108.00" routeLength="995.70" waitingTime="1.00" waitingCount="1" stopTime="0.00" timeLoss="30.12" rerouteNo="0" devices="tripinfo_SN_158" vType="car" speedFactor="0.91" vaporized=""/>
    <tripinfo id="SN_161" depart="165.00" departLane="3i_0" departPos="4.10" departSpeed="0.00" departDelay="4.00" arrival="271.00" arrivalLane="4o_0" arrivalPos="492.80" arrivalSpeed="11.12" duration="106.00" routeLength="995.90" waitingTime="3.00" waitingCount="1" stopTime="0.00" timeLoss="36.89" rerouteNo="0" devices="tripinfo_SN_161" vType="car" speedFactor="1.02" vaporized=""/>
    <tripinfo id="WE_174" depart="175.00" departLane="1i_0" departPos="4.10" departSpeed="0.00" departDelay="1.00" arrival="273.00" arrivalLane="2o_0" arrivalPos="492.80" arrivalSpeed="11.05" duration="98.00" routeLength="995.90" waitingTime="0.00" waitingCount="0" stopTime="0.00" timeLoss="29.46" rerouteNo="0" devices="tripinfo_WE_174" vType="car" speedFactor="1.03" vaporized=""/>