<?xml version="1.0" encoding="UTF-8"?>

<!-- generated on 2024-05-05 16:54:12 by Eclipse SUMO sumo Version 1.19.0
<configuration xmlns:xsi="http://www.w3.org/2001/XMLSchema-instance" xsi:noNamespaceSchemaLocation="http://sumo.dlr.de/xsd/sumoConfiguration.xsd">

    <input>
        <net-file value="twoone.net.xml"/>
        <route-files value="route_gen.rou.xml"/>
    </input>

    <output>
        <tripinfo-output value="tripinfo_epi221.xml"/>
    </output>

    <report>
        <no-warnings value="true"/>
    </report>

    <traci_server>
        <remote-port value="56497"/>
    </traci_server>

</configuration>
-->

<tripinfos xmlns:xsi="http://www.w3.org/2001/XMLSchema-instance" xsi:noNamespaceSchemaLocation="http://sumo.dlr.de/xsd/tripinfo_file.xsd">
    <tripinfo id="EW_7" depart="7.00" departLane="4i_0" departPos="4.10" departSpeed="0.00" departDelay="0.00" arrival="82.00" arrivalLane="1o_0" arrivalPos="492.80" arrivalSpeed="11.38" duration="75.00" routeLength="990.53" waitingTime="0.00" waitingCount="0" stopTime="0.00" timeLoss="8.34" rerouteNo="0" devices="tripinfo_EW_7" vType="car" speedFactor="1.06" vaporized=""/>
    <tripinfo id="SN_8" depart="8.00" departLane="3i_0" departPos="4.10" departSpeed="0.00" departDelay="0.00" arrival="84.00" arrivalLane="1o_0" arrivalPos="492.80" arrivalSpeed="11.03" duration="76.00" routeLength="995.70" waitingTime="0.00" waitingCount="0" stopTime="0.00" timeLoss="10.35" rerouteNo="0" devices="tripinfo_SN_8" vType="car" speedFactor="1.08" vaporized=""/>
    <tripinfo id="NS_8" depart="8.00" departLane="2i_0" departPos="4.10" departSpeed="0.00" departDelay="0.00" arrival="87.00" arrivalLane="4o_0" arrivalPos="492.80" arrivalSpeed="10.05" duration="79.00" routeLength="990.53" waitingTime="0.00" waitingCount="0" stopTime="0.00" timeLoss="8.86" rerouteNo="0" devices="tripinfo_NS_8" vType="car" speedFactor="1.01" vaporized=""/>
    <tripinfo id="EW_10" depart="10.00" departLane="4i_0" departPos="4.10" departSpeed="0.00" departDelay="0.00" arrival="91.00" arrivalLane="1o_0" arrivalPos="492.80" arrivalSpeed="11.31" duration="81.00" routeLength="990.53" waitingTime="0.00" waitingCount="0" stopTime="0.00" timeLoss="12.19" rerouteNo="0" devices="tripinfo_EW_10" vType="car" speedFactor="1.03" vaporized=""/>
    <tripinfo id="WE_13" depart="13.00" departLane="1i_0" departPos="4.10" departSpeed="0.00" departDelay="0.00" arrival="92.00" arrivalLane="2o_0" arrivalPos="492.80" arrivalSpeed="10.49" duration="79.00" routeLength="995.90" waitingTime="0.00" waitingCount="0" stopTime="0.00" timeLoss="10.78" rerouteNo="0" devices="tripinfo_WE_13" vType="car" speedFactor="1.05" vaporized=""/>
    <tripinfo id="WE_8" depart="8.00" departLane="1i_0" departPos="4.10" departSpeed="0.00" departDelay="0.00" arrival="93.00" arrivalLane="4o_0" arrivalPos="492.80" arrivalSpeed="10.20" duration="85.00" routeLength="995.70" waitingTime="0.00" waitingCount="0" stopTime="0.00" timeLoss="9.62" rerouteNo="0" devices="tripinfo_WE_8" vType="car" speedFactor="0.94" vaporized=""/>
    <tripinfo id="WE_21" depart="21.00" departLane="1i_0" departPos="4.10" departSpeed="0.00" departDelay="0.00" arrival="100.00" arrivalLane="3o_0" arrivalPos="492.80" arrivalSpeed="11.71" duration="79.00" routeLength="990.53" waitingTime="0.00" waitingCount="0" stopTime="0.00" timeLoss="14.14" rerouteNo="0" devices="tripinfo_WE_21" vType="car" speedFactor="1.09" vaporized=""/>
    <tripinfo id="SN_15" depart="15.00" departLane="3i_0" departPos="4.10" departSpeed="0.00" departDelay="0.00" arrival="102.00" arrivalLane="2o_0" arrivalPos="492.80" arrivalSpeed="10.01" duration="87.00" routeLength="990.53" waitingTime="0.00" waitingCount="0" stopTime="0.00" timeLoss="11.71" rerouteNo="0" devices="tripinfo_SN_15" vType="car" speedFactor="0.94" vaporized=""/>
    <tripinfo id="SN_25" depart="25.00" departLane="3i_0" departPos="4.10" departSpeed="0.00" departDelay="0.00" arrival="105.00" arrivalLane="1o_0" arrivalPos="492.80" arrivalSpeed="11.40" duration="80.00" routeLength="995.70" waitingTime="1.00" waitingCount="1" stopTime="0.00" timeLoss="12.34" rerouteNo="0" devices="tripinfo_SN_25" vType="car" speedFactor="1.05" vaporized=""/>
    <tripinfo id="NS_29" depart="29.00" departLane="2i_0" departPos="4.10" departSpeed="0.00" departDelay="0.00" arrival="105.00" arrivalLane="3o_0" arrivalPos="492.80" arrivalSpeed="12.11" duration="76.00" routeLength="995.70" waitingTime="0.00" waitingCount="0" stopTime="0.00" timeLoss="12.30" rerouteNo="0" devices="tripinfo_NS_29" vType="car" speedFactor="1.12" vaporized=""/>
    <tripinfo id="WE_14" depart="15.00" departLane="1i_0" departPos="4.10" departSpeed="0.00" departDelay="1.00" arrival="107.00" arrivalLane="4o_0" arrivalPos="492.80" arrivalSpeed="9.43" duration="92.00" routeLength="995.70" waitingTime="0.00" waitingCount="0" stopTime="0.00" timeLoss="11.48" rerouteNo="0" devices="tripinfo_WE_14" vType="car" speedFactor="0.89" vaporized=""/>
    <tripinfo id="EW_11" depart="13.00" departLane="4i_0" departPos="4.10" departSpeed="0.00" departDelay="2.00" arrival="111.00" arrivalLane="2o_0" arrivalPos="492.80" arrivalSpeed="8.67" duration="98.00" routeLength="995.70" waitingTime="0.00" waitingCount="0" stopTime="0.00" timeLoss="12.51" rerouteNo="0" devices="tripinfo_EW_11" vType="car" speedFactor="0.83" vaporized=""/>
    <tripinfo id="WE_23" depart="24.00" departLane="1i_0" departPos="4.10" departSpeed="0.00" departDelay="1.00" arrival="111.00" arrivalLane="4o_0" arrivalPos="492.80" arrivalSpeed="10.50" duration="87.00" routeLength="995.70" waitingTime="0.00" waitingCount="0" stopTime="0.00" timeLoss="17.85" rerouteNo="0" devices="tripinfo_WE_23" vType="car" speedFactor="1.03" vaporized=""/>
    <tripinfo id="WE_18" depart="18.00" departLane="1i_0" departPos="4.10" departSpeed="0.00" departDelay="0.00" arrival="113.00" arrivalLane="2o_0" arrivalPos="492.80" arrivalSpeed="8.81" duration="95.00" routeLength="995.90" waitingTime="0.00" waitingCount="0" stopTime="0.00" timeLoss="11.79" rerouteNo="0" devices="tripinfo_WE_18" vType="car" speedFactor="0.86" vaporized=""/>
    <tripinfo id="NS_30" depart="33.00" departLane="2i_0" departPos="10.10" departSpeed="0.00" departDelay="3.00" arrival="119.00" arrivalLane="1o_0" arrivalPos="492.80" arrivalSpeed="10.85" duration="86.00" routeLength="989.90" waitingTime="0.00" waitingCount="0" stopTime="0.00" timeLoss="15.22" rerouteNo="0" devices="tripinfo_NS_30" vType="truck" speedFactor="1.00" vaporized=""/>
    <tripinfo id="SN_30" depart="30.00" departLane="3i_0" departPos="4.10" departSpeed="0.00" departDelay="0.00" arrival="120.00" arrivalLane="2o_0" arrivalPos="492.80" arrivalSpeed="10.12" duration="90.00" routeLength="990.53" waitingTime="0.00" waitingCount="0" stopTime="0.00" timeLoss="13.68" rerouteNo="0" devices="tripinfo_SN_30" vType="car" speedFactor="0.93" vaporized=""/>
    <tripinfo id="SN_34" depart="34.00" departLane="3i_0" departPos="4.10" departSpeed="0.00" departDelay="0.00" arrival="124.00" arrivalLane="4o_0" arrivalPos="492.80" arrivalSpeed="8.92" duration="90.00" routeLength="995.90" waitingTime="0.00" waitingCount="0" stopTime="0.00" timeLoss="9.57" rerouteNo="0" devices="tripinfo_SN_34" vType="car" speedFactor="0.88" vaporized=""/>
    <tripinfo id="NS_59" depart="59.00" departLane="2i_0" departPos="4.10" departSpeed="0.00" departDelay="0.00" arrival="128.00" arrivalLane="1o_0" arrivalPos="492.80" arrivalSpeed="12.42" duration="69.00" routeLength="995.90" waitingTime="0.00" waitingCount="0" stopTime="0.00" timeLoss="7.25" rerouteNo="0" devices="tripinfo_NS_59" vType="car" speedFactor="1.16" vaporized=""/>
    <tripinfo id="WE_44" depart="44.00" departLane="1i_0" departPos="4.10" departSpeed="0.00" departDelay="0.00" arrival="132.00" arrivalLane="4o_0" arrivalPos="492.80" arrivalSpeed="10.17" duration="88.00" routeLength="995.70" waitingTime="1.00" waitingCount="1" stopTime="0.00" timeLoss="12.21" rerouteNo="0" devices="tripinfo_WE_44" vType="car" speedFactor="0.94" vaporized=""/>
    <tripinfo id="NS_62" depart="62.00" departLane="2i_0" departPos="4.10" departSpeed="0.00" departDelay="0.00" arrival="141.00" arrivalLane="4o_0" arrivalPos="492.80" arrivalSpeed="10.86" duration="79.00" routeLength="990.53" waitingTime="0.00" waitingCount="0" stopTime="0.00" timeLoss="9.71" rerouteNo="0" devices="tripinfo_NS_62" vType="car" speedFactor="1.02" vaporized=""/>
    <tripinfo id="SN_52" depart="52.00" departLane="3i_0" departPos="4.10" departSpeed="0.00" departDelay="0.00" arrival="143.00" arrivalLane="2o_0" arrivalPos="492.80" arrivalSpeed="9.93" duration="91.00" routeLength="990.53" waitingTime="5.00" waitingCount="1" stopTime="0.00" timeLoss="15.12" rerouteNo="0" devices="tripinfo_SN_52" vType="car" speedFactor="0.94" vaporized=""/>
    <tripinfo id="SN_62" depart="62.00" departLane="3i_0" departPos="4.10" departSpeed="0.00" departDelay="0.00" arrival="144.00" arrivalLane="2o_0" arrivalPos="492.80" arrivalSpeed="10.57" duration="82.00" routeLength="990.53" waitingTime="0.00" waitingCount="0" stopTime="0.00" timeLoss="12.39" rerouteNo="0" devices="tripinfo_SN_62" vType="car" speedFactor="1.01" vaporized=""/>
    <tripinfo id="EW_70" depart="70.00" departLane="4i_0" departPos="4.10" departSpeed="0.00" departDelay="0.00" arrival="152.00" arrivalLane="2o_0" arrivalPos="492.80" arrivalSpeed="10.08" duration="82.00" routeLength="995.70" waitingTime="0.00" waitingCount="0" stopTime="0.00" timeLoss="9.50" rerouteNo="0" devices="tripinfo_EW_70" vType="car" speedFactor="0.97" vaporized=""/>
    <tripinfo id="WE_71" depart="71.00" departLane="1i_0" departPos="4.10" departSpeed="0.00" departDelay="0.00" arrival="158.00" arrivalLane="3o_0" arrivalPos="492.80" arrivalSpeed="9.58" duration="87.00" routeLength="990.53" waitingTime="0.00" waitingCount="0" stopTime="0.00" timeLoss="7.97" rerouteNo="0" devices="tripinfo_WE_71" vType="car" speedFactor="0.89" vaporized=""/>
    <tripinfo id="NS_74" depart="74.00" departLane="2i_0" departPos="4.10" departSpeed="0.00" departDelay="0.00" arrival="171.00" arrivalLane="1o_0" arrivalPos="492.80" arrivalSpeed="9.00" duration="97.00" routeLength="995.90" waitingTime="2.00" waitingCount="1" stopTime="0.00" timeLoss="11.30" rerouteNo="0" devices="tripinfo_NS_74" vType="car" speedFactor="0.83" vaporized=""/>
    <tripinfo id="WE_98" depart="98.00" departLane="1i_0" departPos="4.10" departSpeed="0.00" departDelay="0.00" arrival="172.00" arrivalLane="3o_0" arrivalPos="492.80" arrivalSpeed="12.61" duration="74.00" routeLength="990.53" waitingTime="0.00" waitingCount="0" stopTime="0.00" timeLoss="13.54" rerouteNo="0" devices="tripinfo_WE_98" vType="car" speedFactor="1.18" vaporized=""/>
    <tripinfo id="WE_75" depart="75.00" departLane="1i_0" departPos="4.10" departSpeed="0.00" departDelay="0.00" arrival="173.00" arrivalLane="4o_0" arrivalPos="492.80" arrivalSpeed="8.59" duration="98.00" routeLength="995.70" waitingTime="2.00" waitingCount="1" stopTime="0.00" timeLoss="16.92" rerouteNo="0" devices="tripinfo_WE_75" vType="car" speedFactor="0.87" vaporized=""/>
    <tripinfo id="EW_82" depart="82.00" departLane="4i_0" departPos="4.10" departSpeed="0.00" departDelay="0.00" arrival="173.00" arrivalLane="1o_0" arrivalPos="492.80" arrivalSpeed="10.12" duration="91.00" routeLength="990.53" waitingTime="0.00" waitingCount="0" stopTime="0.00" timeLoss="14.18" rerouteNo="0" devices="tripinfo_EW_82" vType="car" speedFactor="0.92" vaporized=""/>
    <tripinfo id="SN_82" depart="82.00" departLane="3i_0" departPos="4.10" departSpeed="0.00" departDelay="0.00" arrival="175.00" arrivalLane="4o_0" arrivalPos="492.80" arrivalSpeed="9.58" duration="93.00" routeLength="995.90" waitingTime="4.00" waitingCount="1" stopTime="0.00" timeLoss="18.29" rerouteNo="0" devices="tripinfo_SN_82" vType="car" speedFactor="0.95" vaporized=""/>
    <tripinfo id="EW_88" depart="88.00" departLane="4i_0" departPos="4.10" departSpeed="0.00" departDelay="0.00" arrival="175.00" arrivalLane="1o_0" arrivalPos="492.80" arrivalSpeed="11.50" duration="87.00" routeLength="990.53" waitingTime="2.00" waitingCount="1" stopTime="0.00" timeLoss="24.34" rerouteNo="0" devices="tripinfo_EW_88" vType="car" speedFactor="1.13" vaporized=""/>
    <tripinfo id="NS_98" depart="98.00" departLane="2i_0" departPos="4.10" departSpeed="0.00" departDelay="0.00" arrival="175.00" arrivalLane="3o_0" arrivalPos="492.80" arrivalSpeed="11.91" duration="77.00" routeLength="995.70" waitingTime="0.00" waitingCount="0" stopTime="0.00" timeLoss="15.37" rerouteNo="0" devices="tripinfo_NS_98" vType="car" speedFactor="1.15" vaporized=""/>
    <tripinfo id="WE_92" depart="92.00" departLane="1i_0" departPos="4.10" departSpeed="0.00" departDelay="0.00" arrival="178.00" arrivalLane="2o_0" arrivalPos="492.80" arrivalSpeed="10.06" duration="86.00" routeLength="995.90" waitingTime="0.00" waitingCount="0" stopTime="0.00" timeLoss="9.35" rerouteNo="0" devices="tripinfo_WE_92" vType="car" speedFactor="0.93" vaporized=""/>
    <tripinfo id="WE_115" depart="115.00" departLane="1i_0" departPos="4.10" departSpeed="0.00" departDelay="0.00" arrival="183.00" arrivalLane="3o_0" arrivalPos="492.80" arrivalSpeed="12.80" duration="68.00" routeLength="990.53" waitingTime="0.00" waitingCount="0" stopTime="0.00" timeLoss="7.66" rerouteNo="0" devices="tripinfo_WE_115" vType="car" speedFactor="1.17" vaporized=""/>
    <tripinfo id="SN_106" depart="106.00" departLane="3i_0" departPos="4.10" departSpeed="0.00" departDelay="0.00" arrival="185.00" arrivalLane="2o_0" arrivalPos="492.80" arrivalSpeed="11.07" duration="79.00" routeLength="990.53" waitingTime="0.00" waitingCount="0" stopTime="0.00" timeLoss="8.67" rerouteNo="0" devices="tripinfo_SN_106" vType="car" speedFactor="1.01" vaporized=""/>
    <tripinfo id="EW_115" depart="115.00" departLane="4i_0" departPos="4.10" departSpeed="0.00" departDelay="0.00" arrival="195.00" arrivalLane="3o_0" arrivalPos="492.80" arrivalSpeed="9.77" duration="80.00" routeLength="995.90" waitingTime="0.00" waitingCount="0" stopTime="0.00" timeLoss="8.61" rerouteNo="0" devices="tripinfo_EW_115" vType="car" speedFactor="0.99" vaporized=""/>
    <tripinfo id="SN_121" depart="121.00" departLane="3i_0" departPos="4.10" departSpeed="0.00" departDelay="0.00" arrival="202.00" arrivalLane="1o_0" arrivalPos="492.80" arrivalSpeed="11.06" duration="81.00" routeLength="995.70" waitingTime="0.00" waitingCount="0" stopTime="0.00" timeLoss="11.18" rerouteNo="0" devices="tripinfo_SN_121" vType="car" speedFactor="1.02" vaporized=""/>
    <tripinfo id="NS_124" depart="125.00" departLane="2i_0" departPos="4.10" departSpeed="0.00" departDelay="1.00" arrival="204.00" arrivalLane="1o_0" arrivalPos="492.80" arrivalSpeed="12.45" duration="79.00" routeLength="995.90" waitingTime="0.00" waitingCount="0" stopTime="0.00" timeLoss="18.42" rerouteNo="0" devices="tripinfo_NS_124" vType="car" speedFactor="1.18" vaporized=""/>
    <tripinfo id="NS_123" depart="123.00" departLane="2i_0" departPos="4.10" departSpeed="0.00" departDelay="0.00" arrival="207.00" arrivalLane="4o_0" arrivalPos="492.80" arrivalSpeed="9.78" duration="84.00" routeLength="990.53" waitingTime="1.00" waitingCount="1" stopTime="0.00" timeLoss="11.10" rerouteNo="0" devices="tripinfo_NS_123" vType="car" speedFactor="0.97" vaporized=""/>
    <tripinfo id="SN_126" depart="126.00" departLane="3i_0" departPos="10.10" departSpeed="0.00" departDelay="0.00" arrival="207.00" arrivalLane="2o_0" arrivalPos="492.80" arrivalSpeed="11.30" duration="81.00" routeLength="984.53" waitingTime="0.00" waitingCount="0" stopTime="0.00" timeLoss="13.09" rerouteNo="0" devices="tripinfo_SN_126" vType="truck" speedFactor="1.05" vaporized=""/>
    <tripinfo id="EW_128" depart="128.00" departLane="4i_0" departPos="4.10" departSpeed="0.00" departDelay="0.00" arrival="211.00" arrivalLane="1o_0" arrivalPos="492.80" arrivalSpeed="10.58" duration="83.00" routeLength="990.53" waitingTime="1.00" waitingCount="1" stopTime="0.00" timeLoss="14.09" rerouteNo="0" devices="tripinfo_EW_128" vType="car" speedFactor="1.03" vaporized=""/>
    <tripinfo id="NS_127" depart="128.00" departLane="2i_0" departPos="4.10" departSpeed="0.00" departDelay="1.00" arrival="219.00" arrivalLane="4o_0" arrivalPos="492.80" arrivalSpeed="9.75" duration="91.00" routeLength="990.53" waitingTime="2.00" waitingCount="1" stopTime="0.00" timeLoss="12.50" rerouteNo="0" devices="tripinfo_NS_127" vType="car" speedFactor="0.90" vaporized=""/>
    <tripinfo id="WE_157" depart="157.00" departLane="1i_0" departPos="4.10" departSpeed="0.00" departDelay="0.00" arrival="234.00" arrivalLane="2o_0" arrivalPos="492.80" arrivalSpeed="10.36" duration="77.00" routeLength="995.90" waitingTime="0.00" waitingCount="0" stopTime="0.00" timeLoss="8.22" rerouteNo="0" devices="tripinfo_WE_157" vType="car" speedFactor="1.04" vaporized=""/>
    <tripinfo id="WE_159" depart="160.00" departLane="1i_0" departPos="4.10" departSpeed="0.00" departDelay="1.00" arrival="238.00" arrivalLane="4o_0" arrivalPos="492.80" arrivalSpeed="11.53" duration="78.00" routeLength="995.70" waitingTime="0.00" waitingCount="0" stopTime="0.00" timeLoss="9.84" rerouteNo="0" devices="tripinfo_WE_159" vType="car" speedFactor="1.04" vaporized=""/>
    <tripinfo id="WE_160" depart="163.00" departLane="1i_0" departPos="4.10" departSpeed="0.00" departDelay="3.00" arrival="238.00" arrivalLane="2o_0" arrivalPos="492.80" arrivalSpeed="11.12" duration="75.00" routeLength="995.90" waitingTime="0.00" waitingCount="0" stopTime="0.00" timeLoss="9.24" rerouteNo="0" devices="tripinfo_WE_160" vType="car" speedFactor="1.09" vaporized=""/>
    <tripinfo id="EW_156" depart="156.00" departLane="4i_0" departPos="4.10" departSpeed="0.00" departDelay="0.00" arrival="244.00" arrivalLane="3o_0" arrivalPos="492.80" arrivalSpeed="11.61" duration="88.00" routeLength="995.90" waitingTime="8.00" waitingCount="1" stopTime="0.00" timeLoss="22.46" rerouteNo="0" devices="tripinfo_EW_156" vType="car" speedFactor="1.09" vaporized=""/>
    <tripinfo id="SN_148" depart="148.00" departLane="3i_0" departPos="4.10" departSpeed="0.00" departDelay="0.00" arrival="249.00" arrivalLane="4o_0" arrivalPos="492.80" arrivalSpeed="9.33" duration="101.00" routeLength="995.90" waitingTime="13.00" waitingCount="1" stopTime="0.00" timeLoss="27.29" rerouteNo="0" devices="tripinfo_SN_148" vType="car" speedFactor="0.96" vaporized=""/>
    <tripinfo id="EW_160" depart="160.00" departLane="4i_0" departPos="4.10" departSpeed="0.00" departDelay="0.00" arrival="250.00" arrivalLane="1o_0" arrivalPos="492.80" arrivalSpeed="10.99" duration="90.00" routeLength="990.53" waitingTime="4.00" waitingCount="1" stopTime="0.00" timeLoss="18.81" rerouteNo="0" devices="tripinfo_EW_160" vType="car" speedFactor="1.00" vaporized=""/>
    <tripinfo id="NS_180" depart="180.00" departLane="2i_0" departPos="4.10" departSpeed="0.00" departDelay="0.00" arrival="258.00" arrivalLane="4o_0" arrivalPos="492.80" arrivalSpeed="10.26" duration="78.00" routeLength="990.53" waitingTime="0.00" waitingCount="0" stopTime="0.00" timeLoss="8.64" rerouteNo="0" devices="tripinfo_NS_180" vType="car" speedFactor="1.02" vaporized=""/>
    <tripinfo id="WE_163" depart="166.00" departLane="1i_0" departPos="4.10" departSpeed="0.00" departDelay="3.00" arrival="260.00" arrivalLane="2o_0" arrivalPos="492.80" arrivalSpeed="9.07" duration="94.00" routeLength="995.90" waitingTime="2.00" waitingCount="1" stopTime="0.00" timeLoss="14.91" rerouteNo="0" devices="tripinfo_WE_163" vType="car" speedFactor="0.90" vaporized=""/>
    <tripinfo id="SN_172" depart="172.00" departLane="3i_0" departPos="10.10" departSpeed="0.00" departDelay="0.00" arrival="264.00" arrivalLane="2o_0" arrivalPos="492.80" arrivalSpeed="10.21" duration="92.00" routeLength="984.53" waitingTime="0.00" waitingCount="0" stopTime="0.00" timeLoss="17.55" rerouteNo="0" devices="tripinfo_SN_172" vType="truck" speedFactor="0.94" vaporized=""/>
    <tripinfo id="WE_180" depart="180.00" departLane="1i_0" departPos="4.10" departSpeed="0.00" departDelay="0.00" arrival="273.00" arrivalLane="3o_0" arrivalPos="492.80" arrivalSpeed="8.55" duration="93.00" routeLength="990.53" waitingTime="0.00" waitingCount="0" stopTime="0.00" timeLoss="10.71" rerouteNo="0" devices="tripinfo_WE_180" vType="car" speedFactor="0.85" vaporized=""/>
    <tripinfo id="WE_189" depart="189.00" departLane="1i_0" departPos="4.10" departSpeed="0.00" departDelay="0.00" arrival="273.00" arrivalLane="4o_0" arrivalPos="492.80" arrivalSpeed="10.05" duration="84.00" routeLength="995.70" waitingTime="0.00" waitingCount="0" stopTime="0.00" timeLoss="13.02" rerouteNo="0" devices="tripinfo_WE_189" vType="car" speedFactor="1.00" vaporized=""/>
    <tripinfo id="SN_176" depart="176.00" departLane="3i_0" departPos="4.10" departSpeed="0.00" departDelay="0.00" arrival="274.00" arrivalLane="2o_0" arrivalPos="492.80" arrivalSpeed="9.26" duration="98.00" routeLength="990.53" waitingTime="0.00" waitingCount="0" stopTime="0.00" timeLoss="15.42" rerouteNo="0" devices="tripinfo_SN_176" vType="car" speedFactor="0.85" vaporized=""/>
    <tripinfo id="EW_180" depart="180.00" departLane="4i_0" departPos="10.10" departSpeed="0.00" departDelay="0.00" arrival="276.00" arrivalLane="3o_0" arrivalPos="492.80" arrivalSpeed="11.14" duration="96.00" routeLength="989.90" waitingTime="1.00" waitingCount="1" stopTime="0.00" timeLoss="28.88" rerouteNo="0" devices="tripinfo_EW_180" vType="truck" speedFactor="1.08" vaporized=""/>
    <tripinfo id="EW_186" depart="186.00" departLane="4i_0" departPos="4.10" departSpeed="0.00" departDelay="0.00" arrival="276.00" arrivalLane="2o_0" arrivalPos="492.80" arrivalSpeed="11.07" duration="90.00" routeLength="995.70" waitingTime="1.00" waitingCount="1" stopTime="0.00" timeLoss="25.30" rerouteNo="0" devices="tripinfo_EW_186" vType="car" speedFactor="1.10" vaporized=""/>
    <tripinfo id="WE_207" depart="207.00" departLane="1i_0" departPos="4.10" departSpeed="0.00" departDelay="0.00" arrival="278.00" arrivalLane="3o_0" arrivalPos="492.80" arrivalSpeed="12.63" duration="71.00" routeLength="990.53" waitingTime="0.00" waitingCount="0" stopTime="0.00" timeLoss="8.84" rerouteNo="0" devices="tripinfo_WE_207" vType="car" speedFactor="1.14" vaporized=""/>
    <tripinfo id="NS_203" depart="203.00" departLane="2i_0" departPos="4.10" departSpeed="0.00" departDelay="0.00" arrival="291.00" arrivalLane="1o_0" arrivalPos="492.80" arrivalSpeed="8.69" duration="88.00" routeLength="995.90" waitingTime="0.00" waitingCount="0" stopTime="0.00" timeLoss="8.61" rerouteNo="0" devices="tripinfo_NS_203" vType="car" speedFactor="0.90" vaporized=""/>
    <tripinfo id="NS_209" depart="209.00" departLane="2i_0" departPos="4.10" departSpeed="0.00" departDelay="0.00" arrival="292.00" arrivalLane="1o_0" arrivalPos="492.80" arrivalSpeed="9.91" duration="83.00" routeLength="995.90" waitingTime="0.00" waitingCount="0" stopTime="0.00" timeLoss="10.08" rerouteNo="0" devices="tripinfo_NS_209" vType="car" speedFactor="0.97" vaporized=""/>
    <tripinfo id="NS_212" depart="212.00" departLane="2i_0" departPos="4.10" departSpeed="0.00" departDelay="0.00" arrival="294.00" arrivalLane="1o_0" arrivalPos="492.80" arrivalSpeed="11.57" duration="82.00" routeLength="995.90" waitingTime="0.00" waitingCount="0" stopTime="0.00" timeLoss="16.27" rerouteNo="0" devices="tripinfo_NS_212" vType="car" speedFactor="1.08" vaporized=""/>
    <tripinfo id="WE_214" depart="214.00" departLane="1i_0" departPos="10.10" departSpeed="0.00" departDelay="0.00" arrival="294.00" arrivalLane="2o_0" arrivalPos="492.80" arrivalSpeed="11.57" duration="80.00" routeLength="989.90" waitingTime="0.00" waitingCount="0" stopTime="0.00" timeLoss="12.32" rerouteNo="0" devices="tripinfo_WE_214" vType="truck" speedFactor="1.06" vaporized=""/>
    <tripinfo id="SN_194" depart="195.00" departLane="3i_0" departPos="4.10" departSpeed="0.00" departDelay="1.00" arrival="304.00" arrivalLane="4o_0" arrivalPos="492.80" arrivalSpeed="10.31" duration="109.00" routeLength="995.90" waitingTime="26.00" waitingCount="1" stopTime="0.00" timeLoss="37.67" rerouteNo="0" devices="tripinfo_SN_194" vType="car" speedFactor="1.00" vaporized=""/>
    <tripinfo id="EW_214" depart="214.00" departLane="4i_0" departPos="4.10" departSpeed="0.00" departDelay="0.00" arrival="304.00" arrivalLane="3o_0" arrivalPos="492.80" arrivalSpeed="10.21" duration="90.00" routeLength="995.90" waitingTime="6.00" waitingCount="1" stopTime="0.00" timeLoss="19.86" rerouteNo="0" devices="tripinfo_EW_214" vType="car" speedFactor="1.02" vaporized=""/>
    <tripinfo id="SN_207" depart="207.00" departLane="3i_0" departPos="4.10" departSpeed="0.00" departDelay="0.00" arrival="306.00" arrivalLane="4o_0" arrivalPos="492.80" arrivalSpeed="10.63" duration="99.00" routeLength="995.90" waitingTime="15.00" waitingCount="1" stopTime="0.00" timeLoss="29.42" rerouteNo="0" devices="tripinfo_SN_207" vType="car" speedFactor="1.02" vaporized=""/>
    <tripinfo id="EW_219" depart="219.00" departLane="4i_0" departPos="4.10" departSpeed="0.00" departDelay="0.00" arrival="307.00" arrivalLane="3o_0" arrivalPos="492.80" arrivalSpeed="10.46" duration="88.00" routeLength="995.90" waitingTime="2.00" waitingCount="1" stopTime="0.00" timeLoss="15.99" rerouteNo="0" devices="tripinfo_EW_219" vType="car" speedFactor="0.99" vaporized=""/>
    <tripinfo id="EW_220" depart="222.00" departLane="4i_0" departPos="4.10" departSpeed="0.00" departDelay="2.00" arrival="312.00" arrivalLane="3o_0" arrivalPos="492.80" arrivalSpeed="9.23" duration="90.00" routeLength="995.90" waitingTime="0.00" waitingCount="0" stopTime="0.00" timeLoss="14.06" rerouteNo="0" devices="tripinfo_EW_220" vType="car" speedFactor="0.94" vaporized=""/>
    <tripinfo id="NS_227" depart="227.00" departLane="2i_0" departPos="4.10" departSpeed="0.00" departDelay="0.00" arrival="314.00" arrivalLane="3o_0" arrivalPos="492.80" arrivalSpeed="11.01" duration="87.00" routeLength="995.70" waitingTime="0.00" waitingCount="0" stopTime="0.00" timeLoss="18.24" rerouteNo="0" devices="tripinfo_NS_227" vType="car" speedFactor="1.04" vaporized=""/>
    <tripinfo id="EW_222" depart="225.00" departLane="4i_0" departPos="4.10" departSpeed="0.00" departDelay="3.00" arrival="315.00" arrivalLane="1o_0" arrivalPos="492.80" arrivalSpeed="9.37" duration="90.00" routeLength="990.53" waitingTime="0.00" waitingCount="0" stopTime="0.00" timeLoss="12.99" rerouteNo="0" devices="tripinfo_EW_222" vType="car" speedFactor="0.91" vaporized=""/>
    <tripinfo id="SN_231" depart="231.00" departLane="3i_0" departPos="4.10" departSpeed="0.00" departDelay="0.00" arrival="316.00" arrivalLane="2o_0" arrivalPos="492.80" arrivalSpeed="10.19" duration="85.00" routeLength="990.53" waitingTime="2.00" waitingCount="1" stopTime="0.00" timeLoss="16.06" rerouteNo="0" devices="tripinfo_SN_231" vType="car" speedFactor="1.02" vaporized=""/>
    <tripinfo id="SN_220" depart="220.00" departLane="3i_0" departPos="4.10" departSpeed="0.00" departDelay="0.00" arrival="320.00" arrivalLane="1o_0" arrivalPos="492.80" arrivalSpeed="8.87" duration="100.00" routeLength="995.70" waitingTime="0.00" waitingCount="0" stopTime="0.00" timeLoss="19.52" rerouteNo="0" devices="tripinfo_SN_220" vType="car" speedFactor="0.88" vaporized=""/>
    <tripinfo id="WE_222" depart="222.00" departLane="1i_0" departPos="4.10" departSpeed="0.00" departDelay="0.00" arrival="321.00" arrivalLane="3o_0" arrivalPos="492.80" arrivalSpeed="9.00" duration="99.00" routeLength="990.53" waitingTime="4.00" waitingCount="3" stopTime="0.00" timeLoss="21.00" rerouteNo="0" devices="tripinfo_WE_222" vType="car" speedFactor="0.91" vaporized=""/>
    <tripinfo id="NS_237" depart="238.00" departLane="2i_0" departPos="4.10" departSpeed="0.00" departDelay="1.00" arrival="322.00" arrivalLane="1o_0" arrivalPos="492.80" arrivalSpeed="10.96" duration="84.00" routeLength="995.90" waitingTime="0.00" waitingCount="0" stopTime="0.00" timeLoss="14.05" rerouteNo="0" devices="tripinfo_NS_237" vType="car" speedFactor="1.02" vaporized=""/>
    <tripinfo id="WE_244" depart="245.00" departLane="1i_0" departPos="4.10" departSpeed="0.00" departDelay="1.00" arrival="322.00" arrivalLane="2o_0" arrivalPos="492.80" arrivalSpeed="11.32" duration="77.00" routeLength="995.90" waitingTime="0.00" waitingCount="0" stopTime="0.00" timeLoss="9.69" rerouteNo="0" devices="tripinfo_WE_244" vType="car" speedFactor="1.06" vaporized=""/>
    <tripinfo id="WE_242" depart="242.00" departLane="1i_0" departPos="4.10" departSpeed="0.00" departDelay="0.00" arrival="326.00" arrivalLane="3o_0" arrivalPos="492.80" arrivalSpeed="9.15" duration="84.00" routeLength="990.53" waitingTime="0.00" waitingCount="0" stopTime="0.00" timeLoss="8.86" rerouteNo="0" devices="tripinfo_WE_242" vType="car" speedFactor="0.94" vaporized=""/>
    <tripinfo id="NS_248" depart="248.00" departLane="2i_0" departPos="4.10" departSpeed="0.00" departDelay="0.00" arrival="329.00" arrivalLane="1o_0" arrivalPos="492.80" arrivalSpeed="10.72" duration="81.00" routeLength="995.90" waitingTime="0.00" waitingCount="0" stopTime="0.00" timeLoss="8.71" rerouteNo="0" devices="tripinfo_NS_248" vType="car" speedFactor="0.98" vaporized=""/>
    <tripinfo id="WE_245" depart="247.00" departLane="1i_0" departPos="4.10" departSpeed="0.00" departDelay="2.00" arrival="330.00" arrivalLane="3o_0" arrivalPos="492.80" arrivalSpeed="9.58" duration="83.00" routeLength="990.53" waitingTime="0.00" waitingCount="0" stopTime="0.00" timeLoss="8.99" rerouteNo="0" devices="tripinfo_WE_245" vType="car" speedFactor="0.96" vaporized=""/>
    <tripinfo id="WE_249" depart="250.00" departLane="1i_0" departPos="4.10" departSpeed="0.00" departDelay="1.00" arrival="331.00" arrivalLane="4o_0" arrivalPos="492.80" arrivalSpeed="10.71" duration="81.00" routeLength="995.70" waitingTime="0.00" waitingCount="0" stopTime="0.00" timeLoss="10.48" rerouteNo="0" devices="tripinfo_WE_249" vType="car" speedFactor="1.01" vaporized=""/>