<?xml version="1.0" encoding="UTF-8"?>

<!-- generated on 2024-05-05 18:26:31 by Eclipse SUMO sumo Version 1.19.0
<configuration xmlns:xsi="http://www.w3.org/2001/XMLSchema-instance" xsi:noNamespaceSchemaLocation="http://sumo.dlr.de/xsd/sumoConfiguration.xsd">

    <input>
        <net-file value="twoone.net.xml"/>
        <route-files value="route_gen.rou.xml"/>
    </input>

    <output>
        <tripinfo-output value="tripinfo_epi473.xml"/>
    </output>

    <report>
        <no-warnings value="true"/>
    </report>

    <traci_server>
        <remote-port value="48007"/>
    </traci_server>

</configuration>
-->

<tripinfos xmlns:xsi="http://www.w3.org/2001/XMLSchema-instance" xsi:noNamespaceSchemaLocation="http://sumo.dlr.de/xsd/tripinfo_file.xsd">
    <tripinfo id="NS_5" depart="7.00" departLane="2i_0" departPos="4.10" departSpeed="0.00" departDelay="2.00" arrival="87.00" arrivalLane="4o_0" arrivalPos="492.80" arrivalSpeed="9.94" duration="80.00" routeLength="990.53" waitingTime="0.00" waitingCount="0" stopTime="0.00" timeLoss="10.26" rerouteNo="0" devices="tripinfo_NS_5" vType="car" speedFactor="1.01" vaporized=""/>
    <tripinfo id="WE_6" depart="6.00" departLane="1i_0" departPos="10.10" departSpeed="0.00" departDelay="0.00" arrival="88.00" arrivalLane="2o_0" arrivalPos="492.80" arrivalSpeed="11.34" duration="82.00" routeLength="989.90" waitingTime="0.00" waitingCount="0" stopTime="0.00" timeLoss="13.24" rerouteNo="0" devices="tripinfo_WE_6" vType="truck" speedFactor="1.04" vaporized=""/>
    <tripinfo id="NS_4" depart="4.00" departLane="2i_0" departPos="4.10" departSpeed="0.00" departDelay="0.00" arrival="89.00" arrivalLane="3o_0" arrivalPos="492.80" arrivalSpeed="10.42" duration="85.00" routeLength="995.70" waitingTime="0.00" waitingCount="0" stopTime="0.00" timeLoss="9.09" rerouteNo="0" devices="tripinfo_NS_4" vType="car" speedFactor="0.94" vaporized=""/>
    <tripinfo id="SN_8" depart="8.00" departLane="3i_0" departPos="10.10" departSpeed="0.00" departDelay="0.00" arrival="96.00" arrivalLane="4o_0" arrivalPos="492.80" arrivalSpeed="10.08" duration="88.00" routeLength="989.90" waitingTime="0.00" waitingCount="0" stopTime="0.00" timeLoss="13.47" rerouteNo="0" devices="tripinfo_SN_8" vType="truck" speedFactor="0.94" vaporized=""/>
    <tripinfo id="SN_21" depart="21.00" departLane="3i_0" departPos="4.10" departSpeed="0.00" departDelay="0.00" arrival="96.00" arrivalLane="2o_0" arrivalPos="492.80" arrivalSpeed="10.64" duration="75.00" routeLength="990.53" waitingTime="0.00" waitingCount="0" stopTime="0.00" timeLoss="7.87" rerouteNo="0" devices="tripinfo_SN_21" vType="car" speedFactor="1.05" vaporized=""/>
    <tripinfo id="SN_25" depart="25.00" departLane="3i_0" departPos="4.10" departSpeed="0.00" departDelay="0.00" arrival="103.00" arrivalLane="4o_0" arrivalPos="492.80" arrivalSpeed="11.71" duration="78.00" routeLength="995.90" waitingTime="2.00" waitingCount="1" stopTime="0.00" timeLoss="14.82" rerouteNo="0" devices="tripinfo_SN_25" vType="car" speedFactor="1.12" vaporized=""/>
    <tripinfo id="NS_6" depart="10.00" departLane="2i_0" departPos="4.10" departSpeed="0.00" departDelay="4.00" arrival="108.00" arrivalLane="1o_0" arrivalPos="492.80" arrivalSpeed="9.01" duration="98.00" routeLength="995.90" waitingTime="2.00" waitingCount="1" stopTime="0.00" timeLoss="12.84" rerouteNo="0" devices="tripinfo_NS_6" vType="car" speedFactor="0.83" vaporized=""/>
    <tripinfo id="NS_40" depart="40.00" departLane="2i_0" departPos="4.10" departSpeed="0.00" departDelay="0.00" arrival="109.00" arrivalLane="4o_0" arrivalPos="492.80" arrivalSpeed="11.73" duration="69.00" routeLength="990.53" waitingTime="0.00" waitingCount="0" stopTime="0.00" timeLoss="7.56" rerouteNo="0" devices="tripinfo_NS_40" vType="car" speedFactor="1.16" vaporized=""/>
    <tripinfo id="NS_10" depart="12.00" departLane="2i_0" departPos="4.10" departSpeed="0.00" departDelay="2.00" arrival="110.00" arrivalLane="1o_0" arrivalPos="492.80" arrivalSpeed="10.21" duration="98.00" routeLength="995.90" waitingTime="1.00" waitingCount="1" stopTime="0.00" timeLoss="22.58" rerouteNo="0" devices="tripinfo_NS_10" vType="car" speedFactor="0.94" vaporized=""/>
    <tripinfo id="WE_16" depart="16.00" departLane="1i_0" departPos="4.10" departSpeed="0.00" departDelay="0.00" arrival="111.00" arrivalLane="3o_0" arrivalPos="492.80" arrivalSpeed="9.24" duration="95.00" routeLength="990.53" waitingTime="0.00" waitingCount="0" stopTime="0.00" timeLoss="12.42" rerouteNo="0" devices="tripinfo_WE_16" vType="car" speedFactor="0.86" vaporized=""/>
    <tripinfo id="NS_16" depart="16.00" departLane="2i_0" departPos="4.10" departSpeed="0.00" departDelay="0.00" arrival="112.00" arrivalLane="3o_0" arrivalPos="492.80" arrivalSpeed="10.71" duration="96.00" routeLength="995.70" waitingTime="0.00" waitingCount="0" stopTime="0.00" timeLoss="31.26" rerouteNo="0" devices="tripinfo_NS_16" vType="car" speedFactor="1.09" vaporized=""/>
    <tripinfo id="NS_21" depart="21.00" departLane="2i_0" departPos="4.10" departSpeed="0.00" departDelay="0.00" arrival="114.00" arrivalLane="3o_0" arrivalPos="492.80" arrivalSpeed="10.89" duration="93.00" routeLength="995.70" waitingTime="1.00" waitingCount="1" stopTime="0.00" timeLoss="24.16" rerouteNo="0" devices="tripinfo_NS_21" vType="car" speedFactor="1.03" vaporized=""/>
    <tripinfo id="EW_4" depart="4.00" departLane="4i_0" departPos="10.10" departSpeed="0.00" departDelay="0.00" arrival="118.00" arrivalLane="2o_0" arrivalPos="492.80" arrivalSpeed="10.98" duration="114.00" routeLength="989.70" waitingTime="21.00" waitingCount="1" stopTime="0.00" timeLoss="45.50" rerouteNo="0" devices="tripinfo_EW_4" vType="truck" speedFactor="1.03" vaporized=""/>
    <tripinfo id="NS_26" depart="26.00" departLane="2i_0" departPos="4.10" departSpeed="0.00" departDelay="0.00" arrival="118.00" arrivalLane="1o_0" arrivalPos="492.80" arrivalSpeed="10.23" duration="92.00" routeLength="995.90" waitingTime="1.00" waitingCount="1" stopTime="0.00" timeLoss="15.48" rerouteNo="0" devices="tripinfo_NS_26" vType="car" speedFactor="0.93" vaporized=""/>
    <tripinfo id="WE_31" depart="31.00" departLane="1i_0" departPos="4.10" departSpeed="0.00" departDelay="0.00" arrival="126.00" arrivalLane="2o_0" arrivalPos="492.80" arrivalSpeed="9.23" duration="95.00" routeLength="995.90" waitingTime="6.00" waitingCount="1" stopTime="0.00" timeLoss="19.87" rerouteNo="0" devices="tripinfo_WE_31" vType="car" speedFactor="0.94" vaporized=""/>
    <tripinfo id="SN_33" depart="33.00" departLane="3i_0" departPos="4.10" departSpeed="0.00" departDelay="0.00" arrival="130.00" arrivalLane="4o_0" arrivalPos="492.80" arrivalSpeed="10.18" duration="97.00" routeLength="995.90" waitingTime="9.00" waitingCount="2" stopTime="0.00" timeLoss="21.54" rerouteNo="0" devices="tripinfo_SN_33" vType="car" speedFactor="0.94" vaporized=""/>
    <tripinfo id="EW_6" depart="8.00" departLane="4i_0" departPos="4.10" departSpeed="0.00" departDelay="2.00" arrival="132.00" arrivalLane="2o_0" arrivalPos="492.80" arrivalSpeed="10.29" duration="124.00" routeLength="995.70" waitingTime="28.00" waitingCount="3" stopTime="0.00" timeLoss="55.35" rerouteNo="0" devices="tripinfo_EW_6" vType="car" speedFactor="1.03" vaporized=""/>
    <tripinfo id="EW_7" depart="11.00" departLane="4i_0" departPos="4.10" departSpeed="0.00" departDelay="4.00" arrival="134.00" arrivalLane="2o_0" arrivalPos="492.80" arrivalSpeed="11.32" duration="123.00" routeLength="995.70" waitingTime="24.00" waitingCount="3" stopTime="0.00" timeLoss="55.29" rerouteNo="0" devices="tripinfo_EW_7" vType="car" speedFactor="1.05" vaporized=""/>
    <tripinfo id="NS_58" depart="58.00" departLane="2i_0" departPos="4.10" departSpeed="0.00" departDelay="0.00" arrival="137.00" arrivalLane="1o_0" arrivalPos="492.80" arrivalSpeed="10.55" duration="79.00" routeLength="995.90" waitingTime="0.00" waitingCount="0" stopTime="0.00" timeLoss="9.02" rerouteNo="0" devices="tripinfo_NS_58" vType="car" speedFactor="1.01" vaporized=""/>
    <tripinfo id="WE_56" depart="56.00" departLane="1i_0" departPos="4.10" departSpeed="0.00" departDelay="0.00" arrival="142.00" arrivalLane="4o_0" arrivalPos="492.80" arrivalSpeed="10.89" duration="86.00" routeLength="995.70" waitingTime="2.00" waitingCount="1" stopTime="0.00" timeLoss="16.18" rerouteNo="0" devices="tripinfo_WE_56" vType="car" speedFactor="1.02" vaporized=""/>
    <tripinfo id="EW_26" depart="26.00" departLane="4i_0" departPos="4.10" departSpeed="0.00" departDelay="0.00" arrival="143.00" arrivalLane="1o_0" arrivalPos="492.80" arrivalSpeed="10.35" duration="117.00" routeLength="990.53" waitingTime="20.00" waitingCount="4" stopTime="0.00" timeLoss="45.52" rerouteNo="0" devices="tripinfo_EW_26" vType="car" speedFactor="0.99" vaporized=""/>
    <tripinfo id="SN_58" depart="58.00" departLane="3i_0" departPos="4.10" departSpeed="0.00" departDelay="0.00" arrival="144.00" arrivalLane="2o_0" arrivalPos="492.80" arrivalSpeed="10.25" duration="86.00" routeLength="990.53" waitingTime="0.00" waitingCount="0" stopTime="0.00" timeLoss="13.22" rerouteNo="0" devices="tripinfo_SN_58" vType="car" speedFactor="0.97" vaporized=""/>
    <tripinfo id="EW_29" depart="29.00" departLane="4i_0" departPos="4.10" departSpeed="0.00" departDelay="0.00" arrival="151.00" arrivalLane="1o_0" arrivalPos="492.80" arrivalSpeed="9.34" duration="122.00" routeLength="990.53" waitingTime="9.00" waitingCount="3" stopTime="0.00" timeLoss="41.93" rerouteNo="0" devices="tripinfo_EW_29" vType="car" speedFactor="0.88" vaporized=""/>
    <tripinfo id="NS_61" depart="61.00" departLane="2i_0" departPos="4.10" departSpeed="0.00" departDelay="0.00" arrival="154.00" arrivalLane="1o_0" arrivalPos="492.80" arrivalSpeed="8.95" duration="93.00" routeLength="995.90" waitingTime="1.00" waitingCount="1" stopTime="0.00" timeLoss="13.56" rerouteNo="0" devices="tripinfo_NS_61" vType="car" speedFactor="0.89" vaporized=""/>
    <tripinfo id="NS_78" depart="78.00" departLane="2i_0" departPos="4.10" departSpeed="0.00" departDelay="0.00" arrival="156.00" arrivalLane="1o_0" arrivalPos="492.80" arrivalSpeed="12.06" duration="78.00" routeLength="995.90" waitingTime="0.00" waitingCount="0" stopTime="0.00" timeLoss="16.44" rerouteNo="0" devices="tripinfo_NS_78" vType="car" speedFactor="1.15" vaporized=""/>
    <tripinfo id="NS_66" depart="66.00" departLane="2i_0" departPos="4.10" departSpeed="0.00" departDelay="0.00" arrival="157.00" arrivalLane="4o_0" arrivalPos="492.80" arrivalSpeed="9.60" duration="91.00" routeLength="990.53" waitingTime="0.00" waitingCount="0" stopTime="0.00" timeLoss="10.29" rerouteNo="0" devices="tripinfo_NS_66" vType="car" speedFactor="0.87" vaporized=""/>
    <tripinfo id="EW_67" depart="67.00" departLane="4i_0" departPos="4.10" departSpeed="0.00" departDelay="0.00" arrival="157.00" arrivalLane="3o_0" arrivalPos="492.80" arrivalSpeed="8.99" duration="90.00" routeLength="995.90" waitingTime="0.00" waitingCount="0" stopTime="0.00" timeLoss="13.01" rerouteNo="0" devices="tripinfo_EW_67" vType="car" speedFactor="0.92" vaporized=""/>
    <tripinfo id="EW_69" depart="70.00" departLane="4i_0" departPos="4.10" departSpeed="0.00" departDelay="1.00" arrival="158.00" arrivalLane="1o_0" arrivalPos="492.80" arrivalSpeed="12.02" duration="88.00" routeLength="990.53" waitingTime="2.00" waitingCount="1" stopTime="0.00" timeLoss="25.14" rerouteNo="0" devices="tripinfo_EW_69" vType="car" speedFactor="1.13" vaporized=""/>
    <tripinfo id="SN_63" depart="63.00" departLane="3i_0" departPos="4.10" departSpeed="0.00" departDelay="0.00" arrival="159.00" arrivalLane="2o_0" arrivalPos="492.80" arrivalSpeed="8.17" duration="96.00" routeLength="990.53" waitingTime="0.00" waitingCount="0" stopTime="0.00" timeLoss="10.22" rerouteNo="0" devices="tripinfo_SN_63" vType="car" speedFactor="0.83" vaporized=""/>
    <tripinfo id="NS_70" depart="70.00" departLane="2i_0" departPos="4.10" departSpeed="0.00" departDelay="0.00" arrival="159.00" arrivalLane="4o_0" arrivalPos="492.80" arrivalSpeed="11.94" duration="89.00" routeLength="990.53" waitingTime="0.00" waitingCount="0" stopTime="0.00" timeLoss="28.82" rerouteNo="0" devices="tripinfo_NS_70" vType="car" speedFactor="1.18" vaporized=""/>
    <tripinfo id="NS_79" depart="81.00" departLane="2i_0" departPos="4.10" departSpeed="0.00" departDelay="2.00" arrival="159.00" arrivalLane="1o_0" arrivalPos="492.80" arrivalSpeed="12.62" duration="78.00" routeLength="995.90" waitingTime="2.00" waitingCount="1" stopTime="0.00" timeLoss="17.44" rerouteNo="0" devices="tripinfo_NS_79" vType="car" speedFactor="1.17" vaporized=""/>
    <tripinfo id="SN_67" depart="67.00" departLane="3i_0" departPos="4.10" departSpeed="0.00" departDelay="0.00" arrival="160.00" arrivalLane="2o_0" arrivalPos="492.80" arrivalSpeed="9.73" duration="93.00" routeLength="990.53" waitingTime="0.00" waitingCount="0" stopTime="0.00" timeLoss="19.06" rerouteNo="0" devices="tripinfo_SN_67" vType="car" speedFactor="0.95" vaporized=""/>
    <tripinfo id="WE_70" depart="70.00" departLane="1i_0" departPos="4.10" departSpeed="0.00" departDelay="0.00" arrival="163.00" arrivalLane="4o_0" arrivalPos="492.80" arrivalSpeed="9.06" duration="93.00" routeLength="995.70" waitingTime="2.00" waitingCount="1" stopTime="0.00" timeLoss="16.48" rerouteNo="0" devices="tripinfo_WE_70" vType="car" speedFactor="0.93" vaporized=""/>
    <tripinfo id="NS_85" depart="88.00" departLane="2i_0" departPos="4.10" departSpeed="0.00" departDelay="3.00" arrival="164.00" arrivalLane="4o_0" arrivalPos="492.80" arrivalSpeed="12.27" duration="76.00" routeLength="990.53" waitingTime="0.00" waitingCount="0" stopTime="0.00" timeLoss="16.30" rerouteNo="0" devices="tripinfo_NS_85" vType="car" speedFactor="1.18" vaporized=""/>
    <tripinfo id="NS_82" depart="83.00" departLane="2i_0" departPos="4.10" departSpeed="0.00" departDelay="1.00" arrival="166.00" arrivalLane="3o_0" arrivalPos="492.80" arrivalSpeed="10.10" duration="83.00" routeLength="995.70" waitingTime="0.00" waitingCount="0" stopTime="0.00" timeLoss="11.20" rerouteNo="0" devices="tripinfo_NS_82" vType="car" speedFactor="0.99" vaporized=""/>
    <tripinfo id="NS_86" depart="91.00" departLane="2i_0" departPos="4.10" departSpeed="0.00" departDelay="5.00" arrival="166.00" arrivalLane="4o_0" arrivalPos="492.80" arrivalSpeed="11.05" duration="75.00" routeLength="990.53" waitingTime="0.00" waitingCount="0" stopTime="0.00" timeLoss="10.65" rerouteNo="0" devices="tripinfo_NS_86" vType="car" speedFactor="1.10" vaporized=""/>
    <tripinfo id="NS_87" depart="94.00" departLane="2i_0" departPos="4.10" departSpeed="0.00" departDelay="7.00" arrival="171.00" arrivalLane="4o_0" arrivalPos="492.80" arrivalSpeed="11.33" duration="77.00" routeLength="990.53" waitingTime="0.00" waitingCount="0" stopTime="0.00" timeLoss="7.90" rerouteNo="0" devices="tripinfo_NS_87" vType="car" speedFactor="1.03" vaporized=""/>
    <tripinfo id="WE_98" depart="98.00" departLane="1i_0" departPos="4.10" departSpeed="0.00" departDelay="0.00" arrival="172.00" arrivalLane="3o_0" arrivalPos="492.80" arrivalSpeed="11.90" duration="74.00" routeLength="990.53" waitingTime="0.00" waitingCount="0" stopTime="0.00" timeLoss="8.81" rerouteNo="0" devices="tripinfo_WE_98" vType="car" speedFactor="1.09" vaporized=""/>
    <tripinfo id="EW_79" depart="79.00" departLane="4i_0" departPos="4.10" departSpeed="0.00" departDelay="0.00" arrival="174.00" arrivalLane="1o_0" arrivalPos="492.80" arrivalSpeed="9.97" duration="95.00" routeLength="990.53" waitingTime="12.00" waitingCount="1" stopTime="0.00" timeLoss="24.61" rerouteNo="0" devices="tripinfo_EW_79" vType="car" speedFactor="1.01" vaporized=""/>
    <tripinfo id="WE_87" depart="87.00" departLane="1i_0" departPos="4.10" departSpeed="0.00" departDelay="0.00" arrival="174.00" arrivalLane="2o_0" arrivalPos="492.80" arrivalSpeed="9.00" duration="87.00" routeLength="995.90" waitingTime="0.00" waitingCount="0" stopTime="0.00" timeLoss="8.25" rerouteNo="0" devices="tripinfo_WE_87" vType="car" speedFactor="0.90" vaporized=""/>
    <tripinfo id="SN_83" depart="83.00" departLane="3i_0" departPos="4.10" departSpeed="0.00" departDelay="0.00" arrival="177.00" arrivalLane="1o_0" arrivalPos="492.80" arrivalSpeed="10.06" duration="94.00" routeLength="995.70" waitingTime="8.00" waitingCount="2" stopTime="0.00" timeLoss="24.14" rerouteNo="0" devices="tripinfo_SN_83" vType="car" speedFactor="1.02" vaporized=""/>
    <tripinfo id="SN_84" depart="86.00" departLane="3i_0" departPos="4.10" departSpeed="0.00" departDelay="2.00" arrival="181.00" arrivalLane="4o_0" arrivalPos="492.80" arrivalSpeed="9.51" duration="95.00" routeLength="995.90" waitingTime="6.00" waitingCount="1" stopTime="0.00" timeLoss="22.12" rerouteNo="0" devices="tripinfo_SN_84" vType="car" speedFactor="0.97" vaporized=""/>
    <tripinfo id="NS_97" depart="97.00" departLane="2i_0" departPos="4.10" departSpeed="0.00" departDelay="0.00" arrival="181.00" arrivalLane="3o_0" arrivalPos="492.80" arrivalSpeed="10.56" duration="84.00" routeLength="995.70" waitingTime="3.00" waitingCount="1" stopTime="0.00" timeLoss="16.29" rerouteNo="0" devices="tripinfo_NS_97" vType="car" speedFactor="1.04" vaporized=""/>
    <tripinfo id="EW_91" depart="91.00" departLane="4i_0" departPos="4.10" departSpeed="0.00" departDelay="0.00" arrival="184.00" arrivalLane="3o_0" arrivalPos="492.80" arrivalSpeed="11.60" duration="93.00" routeLength="995.90" waitingTime="6.00" waitingCount="4" stopTime="0.00" timeLoss="28.32" rerouteNo="0" devices="tripinfo_EW_91" vType="car" speedFactor="1.09" vaporized=""/>
    <tripinfo id="WE_99" depart="101.00" departLane="1i_0" departPos="4.10" departSpeed="0.00" departDelay="2.00" arrival="185.00" arrivalLane="4o_0" arrivalPos="492.80" arrivalSpeed="10.40" duration="84.00" routeLength="995.70" waitingTime="1.00" waitingCount="1" stopTime="0.00" timeLoss="13.09" rerouteNo="0" devices="tripinfo_WE_99" vType="car" speedFactor="1.00" vaporized=""/>
    <tripinfo id="EW_96" depart="96.00" departLane="4i_0" departPos="4.10" departSpeed="0.00" departDelay="0.00" arrival="189.00" arrivalLane="1o_0" arrivalPos="492.80" arrivalSpeed="11.22" duration="93.00" routeLength="990.53" waitingTime="4.00" waitingCount="2" stopTime="0.00" timeLoss="24.90" rerouteNo="0" devices="tripinfo_EW_96" vType="car" speedFactor="1.04" vaporized=""/>
    <tripinfo id="SN_87" depart="89.00" departLane="3i_0" departPos="4.10" departSpeed="0.00" departDelay="2.00" arrival="195.00" arrivalLane="1o_0" arrivalPos="492.80" arrivalSpeed="10.40" duration="106.00" routeLength="995.70" waitingTime="8.00" waitingCount="2" stopTime="0.00" timeLoss="32.07" rerouteNo="0" devices="tripinfo_SN_87" vType="car" speedFactor="0.96" vaporized=""/>
    <tripinfo id="NS_101" depart="101.00" departLane="2i_0" departPos="4.10" departSpeed="0.00" departDelay="0.00" arrival="200.00" arrivalLane="1o_0" arrivalPos="492.80" arrivalSpeed="8.80" duration="99.00" routeLength="995.90" waitingTime="7.00" waitingCount="1" stopTime="0.00" timeLoss="20.65" rerouteNo="0" devices="tripinfo_NS_101" vType="car" speedFactor="0.90" vaporized=""/>
    <tripinfo id="SN_102" depart="102.00" departLane="3i_0" departPos="10.10" departSpeed="0.00" departDelay="0.00" arrival="204.00" arrivalLane="2o_0" arrivalPos="492.80" arrivalSpeed="9.86" duration="102.00" routeLength="984.53" waitingTime="5.00" waitingCount="2" stopTime="0.00" timeLoss="26.71" rerouteNo="0" devices="tripinfo_SN_102" vType="truck" speedFactor="0.94" vaporized=""/>
    <tripinfo id="NS_125" depart="126.00" departLane="2i_0" departPos="4.10" departSpeed="0.00" departDelay="1.00" arrival="204.00" arrivalLane="4o_0" arrivalPos="492.80" arrivalSpeed="11.27" duration="78.00" routeLength="990.53" waitingTime="0.00" waitingCount="0" stopTime="0.00" timeLoss="8.82" rerouteNo="0" devices="tripinfo_NS_125" vType="car" speedFactor="1.02" vaporized=""/>
    <tripinfo id="NS_130" depart="130.00" departLane="2i_0" departPos="4.10" departSpeed="0.00" departDelay="0.00" arrival="206.00" arrivalLane="4o_0" arrivalPos="492.80" arrivalSpeed="11.75" duration="76.00" routeLength="990.53" waitingTime="0.00" waitingCount="0" stopTime="0.00" timeLoss="12.43" rerouteNo="0" devices="tripinfo_NS_130" vType="car" speedFactor="1.12" vaporized=""/>
    <tripinfo id="NS_121" depart="121.00" departLane="2i_0" departPos="4.10" departSpeed="0.00" departDelay="0.00" arrival="208.00" arrivalLane="1o_0" arrivalPos="492.80" arrivalSpeed="9.18" duration="87.00" routeLength="995.90" waitingTime="0.00" waitingCount="0" stopTime="0.00" timeLoss="8.38" rerouteNo="0" devices="tripinfo_NS_121" vType="car" speedFactor="0.90" vaporized=""/>
    <tripinfo id="SN_109" depart="112.00" departLane="3i_0" departPos="4.10" departSpeed="0.00" departDelay="3.00" arrival="214.00" arrivalLane="1o_0" arrivalPos="492.80" arrivalSpeed="8.89" duration="102.00" routeLength="995.70" waitingTime="1.00" waitingCount="1" stopTime="0.00" timeLoss="18.92" rerouteNo="0" devices="tripinfo_SN_109" vType="car" speedFactor="0.85" vaporized=""/>
    <tripinfo id="EW_111" depart="111.00" departLane="4i_0" departPos="4.10" departSpeed="0.00" departDelay="0.00" arrival="214.00" arrivalLane="2o_0" arrivalPos="492.80" arrivalSpeed="8.99" duration="103.00" routeLength="995.70" waitingTime="4.00" waitingCount="2" stopTime="0.00" timeLoss="19.86" rerouteNo="0" devices="tripinfo_EW_111" vType="car" speedFactor="0.85" vaporized=""/>
    <tripinfo id="SN_111" depart="114.00" departLane="3i_0" departPos="4.10" departSpeed="0.00" departDelay="3.00" arrival="216.00" arrivalLane="1o_0" arrivalPos="492.80" arrivalSpeed="11.78" duration="102.00" routeLength="995.70" waitingTime="3.00" waitingCount="2" stopTime="0.00" timeLoss="41.11" rerouteNo="0" devices="tripinfo_SN_111" vType="car" speedFactor="1.17" vaporized=""/>
    <tripinfo id="WE_116" depart="116.00" departLane="1i_0" departPos="10.10" departSpeed="0.00" departDelay="0.00" arrival="216.00" arrivalLane="2o_0" arrivalPos="492.80" arrivalSpeed="10.94" duration="100.00" routeLength="989.90" waitingTime="1.00" waitingCount="1" stopTime="0.00" timeLoss="30.03" rerouteNo="0" devices="tripinfo_WE_116" vType="truck" speedFactor="1.01" vaporized=""/>
    <tripinfo id="EW_117" depart="117.00" departLane="4i_0" departPos="4.10" departSpeed="0.00" departDelay="0.00" arrival="218.00" arrivalLane="2o_0" arrivalPos="492.80" arrivalSpeed="11.67" duration="101.00" routeLength="995.70" waitingTime="5.00" waitingCount="3" stopTime="0.00" timeLoss="36.58" rerouteNo="0" devices="tripinfo_EW_117" vType="car" speedFactor="1.10" vaporized=""/>
    <tripinfo id="NS_136" depart="136.00" departLane="2i_0" departPos="4.10" departSpeed="0.00" departDelay="0.00" arrival="221.00" arrivalLane="1o_0" arrivalPos="492.80" arrivalSpeed="9.44" duration="85.00" routeLength="995.90" waitingTime="0.00" waitingCount="0" stopTime="0.00" timeLoss="9.09" rerouteNo="0" devices="tripinfo_NS_136" vType="car" speedFactor="0.94" vaporized=""/>
    <tripinfo id="WE_126" depart="126.00" departLane="1i_0" departPos="4.10" departSpeed="0.00" departDelay="0.00" arrival="223.00" arrivalLane="4o_0" arrivalPos="492.80" arrivalSpeed="10.71" duration="97.00" routeLength="995.70" waitingTime="4.00" waitingCount="1" stopTime="0.00" timeLoss="23.58" rerouteNo="0" devices="tripinfo_WE_126" vType="car" speedFactor="0.97" vaporized=""/>
    <tripinfo id="EW_119" depart="120.00" departLane="4i_0" departPos="4.10" departSpeed="0.00" departDelay="1.00" arrival="226.00" arrivalLane="3o_0" arrivalPos="492.80" arrivalSpeed="10.91" duration="106.00" routeLength="995.90" waitingTime="12.00" waitingCount="2" stopTime="0.00" timeLoss="35.55" rerouteNo="0" devices="tripinfo_EW_119" vType="car" speedFactor="1.00" vaporized=""/>
    <tripinfo id="SN_131" depart="131.00" departLane="3i_0" departPos="4.10" departSpeed="0.00" departDelay="0.00" arrival="226.00" arrivalLane="4o_0" arrivalPos="492.80" arrivalSpeed="11.15" duration="95.00" routeLength="995.90" waitingTime="9.00" waitingCount="1" stopTime="0.00" timeLoss="25.05" rerouteNo="0" devices="tripinfo_SN_131" vType="car" speedFactor="1.02" vaporized=""/>
    <tripinfo id="SN_134" depart="134.00" departLane="3i_0" departPos="4.10" departSpeed="0.00" departDelay="0.00" arrival="230.00" arrivalLane="2o_0" arrivalPos="492.80" arrivalSpeed="10.50" duration="96.00" routeLength="990.53" waitingTime="8.00" waitingCount="1" stopTime="0.00" timeLoss="24.16" rerouteNo="0" devices="tripinfo_SN_134" vType="car" speedFactor="0.99" vaporized=""/>
    <tripinfo id="EW_120" depart="122.00" departLane="4i_0" departPos="4.10" departSpeed="0.00" departDelay="2.00" arrival="234.00" arrivalLane="2o_0" arrivalPos="492.80" arrivalSpeed="10.63" duration="112.00" routeLength="995.70" waitingTime="12.00" waitingCount="4" stopTime="0.00" timeLoss="40.93" rerouteNo="0" devices="tripinfo_EW_120" vType="car" speedFactor="1.00" vaporized=""/>
    <tripinfo id="NS_143" depart="144.00" departLane="2i_0" departPos="4.10" departSpeed="0.00" departDelay="1.00" arrival="235.00" arrivalLane="3o_0" arrivalPos="492.80" arrivalSpeed="9.66" duration="91.00" routeLength="995.70" waitingTime="0.00" waitingCount="0" stopTime="0.00" timeLoss="10.38" rerouteNo="0" devices="tripinfo_NS_143" vType="car" speedFactor="0.88" vaporized=""/>
    <tripinfo id="WE_145" depart="145.00" departLane="1i_0" departPos="4.10" departSpeed="0.00" departDelay="0.00" arrival="235.00" arrivalLane="4o_0" arrivalPos="492.80" arrivalSpeed="8.82" duration="90.00" routeLength="995.70" waitingTime="0.00" waitingCount="0" stopTime="0.00" timeLoss="11.58" rerouteNo="0" devices="tripinfo_WE_145" vType="car" speedFactor="0.91" vaporized=""/>
    <tripinfo id="EW_122" depart="126.00" departLane="4i_0" departPos="4.10" departSpeed="0.00" departDelay="4.00" arrival="237.00" arrivalLane="3o_0" arrivalPos="492.80" arrivalSpeed="12.35" duration="111.00" routeLength="995.90" waitingTime="11.00" waitingCount="3" stopTime="0.00" timeLoss="48.42" rerouteNo="0" devices="tripinfo_EW_122" vType="car" speedFactor="1.14" vaporized=""/>
    <tripinfo id="EW_130" depart="130.00" departLane="4i_0" departPos="4.10" departSpeed="0.00" departDelay="0.00" arrival="238.00" arrivalLane="3o_0" arrivalPos="492.80" arrivalSpeed="11.18" duration="108.00" routeLength="995.90" waitingTime="9.00" waitingCount="2" stopTime="0.00" timeLoss="42.62" rerouteNo="0" devices="tripinfo_EW_130" vType="car" speedFactor="1.08" vaporized=""/>
    <tripinfo id="WE_151" depart="151.00" departLane="1i_0" departPos="4.10" departSpeed="0.00" departDelay="0.00" arrival="243.00" arrivalLane="4o_0" arrivalPos="492.80" arrivalSpeed="10.59" duration="92.00" routeLength="995.70" waitingTime="7.00" waitingCount="1" stopTime="0.00" timeLoss="22.48" rerouteNo="0" devices="tripinfo_WE_151" vType="car" speedFactor="1.02" vaporized=""/>
    <tripinfo id="EW_147" depart="147.00" departLane="4i_0" departPos="4.10" departSpeed="0.00" departDelay="0.00" arrival="245.00" arrivalLane="3o_0" arrivalPos="492.80" arrivalSpeed="9.41" duration="98.00" routeLength="995.90" waitingTime="0.00" waitingCount="0" stopTime="0.00" timeLoss="20.07" rerouteNo="0" devices="tripinfo_EW_147" vType="car" speedFactor="0.91" vaporized=""/>
    <tripinfo id="WE_161" depart="161.00" departLane="1i_0" departPos="4.10" departSpeed="0.00" departDelay="0.00" arrival="247.00" arrivalLane="3o_0" arrivalPos="492.80" arrivalSpeed="10.92" duration="86.00" routeLength="990.53" waitingTime="1.00" waitingCount="1" stopTime="0.00" timeLoss="16.52" rerouteNo="0" devices="tripinfo_WE_161" vType="car" speedFactor="1.02" vaporized=""/>
    <tripinfo id="EW_149" depart="150.00" departLane="4i_0" departPos="4.10" departSpeed="0.00" departDelay="1.00" arrival="248.00" arrivalLane="2o_0" arrivalPos="492.80" arrivalSpeed="11.42" duration="98.00" routeLength="995.70" waitingTime="3.00" waitingCount="1" stopTime="0.00" timeLoss="29.94" rerouteNo="0" devices="tripinfo_EW_149" vType="car" speedFactor="1.04" vaporized=""/>
    <tripinfo id="SN_161" depart="161.00" departLane="3i_0" departPos="4.10" departSpeed="0.00" departDelay="0.00" arrival="248.00" arrivalLane="4o_0" arrivalPos="492.80" arrivalSpeed="10.60" duration="87.00" routeLength="995.90" waitingTime="0.00" waitingCount="0" stopTime="0.00" timeLoss="14.05" rerouteNo="0" devices="tripinfo_SN_161" vType="car" speedFactor="0.97" vaporized=""/>
    <tripinfo id="SN_162" depart="163.00" departLane="3i_0" departPos="4.10" departSpeed="0.00" departDelay="1.00" arrival="253.00" arrivalLane="1o_0" arrivalPos="492.80" arrivalSpeed="10.23" duration="90.00" routeLength="995.70" waitingTime="1.00" waitingCount="1" stopTime="0.00" timeLoss="14.45" rerouteNo="0" devices="tripinfo_SN_162" vType="car" speedFactor="0.94" vaporized=""/>
    <tripinfo id="WE_171" depart="171.00" departLane="1i_0" departPos="10.10" departSpeed="0.00" departDelay="0.00" arrival="256.00" arrivalLane="4o_0" arrivalPos="492.80" arrivalSpeed="11.24" duration="85.00" routeLength="989.70" waitingTime="0.00" waitingCount="0" stopTime="0.00" timeLoss="15.76" rerouteNo="0" devices="tripinfo_WE_171" vType="truck" speedFactor="1.03" vaporized=""/>
    <tripinfo id="NS_171" depart="171.00" departLane="2i_0" departPos="4.10" departSpeed="0.00" departDelay="0.00" arrival="257.00" arrivalLane="1o_0" arrivalPos="492.80" arrivalSpeed="9.33" duration="86.00" routeLength="995.90" waitingTime="0.00" waitingCount="0" stopTime="0.00" timeLoss="11.24" rerouteNo="0" devices="tripinfo_NS_171" vType="car" speedFactor="0.96" vaporized=""/>
    <tripinfo id="EW_176" depart="176.00" departLane="4i_0" departPos="4.10" departSpeed="0.00" departDelay="0.00" arrival="260.00" arrivalLane="1o_0" arrivalPos="492.80" arrivalSpeed="10.24" duration="84.00" routeLength="990.53" waitingTime="0.00" waitingCount="0" stopTime="0.00" timeLoss="12.53" rerouteNo="0" devices="tripinfo_EW_176" vType="car" speedFactor="0.98" vaporized=""/>