<?xml version="1.0" encoding="UTF-8"?>

<!-- generated on 2024-05-05 15:40:58 by Eclipse SUMO sumo Version 1.19.0
<configuration xmlns:xsi="http://www.w3.org/2001/XMLSchema-instance" xsi:noNamespaceSchemaLocation="http://sumo.dlr.de/xsd/sumoConfiguration.xsd">

    <input>
        <net-file value="twoone.net.xml"/>
        <route-files value="route_gen.rou.xml"/>
    </input>

    <output>
        <tripinfo-output value="tripinfo_epi10.xml"/>
    </output>

    <report>
        <no-warnings value="true"/>
    </report>

    <traci_server>
        <remote-port value="34985"/>
    </traci_server>

</configuration>
-->

<tripinfos xmlns:xsi="http://www.w3.org/2001/XMLSchema-instance" xsi:noNamespaceSchemaLocation="http://sumo.dlr.de/xsd/tripinfo_file.xsd">
    <tripinfo id="SN_1" depart="1.00" departLane="3i_0" departPos="4.10" departSpeed="0.00" departDelay="0.00" arrival="84.00" arrivalLane="4o_0" arrivalPos="492.80" arrivalSpeed="10.42" duration="83.00" routeLength="995.90" waitingTime="0.00" waitingCount="0" stopTime="0.00" timeLoss="7.73" rerouteNo="0" devices="tripinfo_SN_1" vType="car" speedFactor="0.94" vaporized=""/>
    <tripinfo id="NS_0" depart="0.00" departLane="2i_0" departPos="4.10" departSpeed="0.00" departDelay="0.00" arrival="85.00" arrivalLane="1o_0" arrivalPos="492.80" arrivalSpeed="11.64" duration="85.00" routeLength="995.90" waitingTime="7.00" waitingCount="1" stopTime="0.00" timeLoss="17.69" rerouteNo="0" devices="tripinfo_NS_0" vType="car" speedFactor="1.06" vaporized=""/>
    <tripinfo id="WE_7" depart="7.00" departLane="1i_0" departPos="4.10" departSpeed="0.00" departDelay="0.00" arrival="90.00" arrivalLane="4o_0" arrivalPos="492.80" arrivalSpeed="11.02" duration="83.00" routeLength="995.70" waitingTime="0.00" waitingCount="0" stopTime="0.00" timeLoss="12.78" rerouteNo="0" devices="tripinfo_WE_7" vType="car" speedFactor="1.01" vaporized=""/>
    <tripinfo id="SN_11" depart="11.00" departLane="3i_0" departPos="4.10" departSpeed="0.00" departDelay="0.00" arrival="90.00" arrivalLane="1o_0" arrivalPos="492.80" arrivalSpeed="11.68" duration="79.00" routeLength="995.70" waitingTime="0.00" waitingCount="0" stopTime="0.00" timeLoss="12.98" rerouteNo="0" devices="tripinfo_SN_11" vType="car" speedFactor="1.08" vaporized=""/>
    <tripinfo id="WE_14" depart="14.00" departLane="1i_0" departPos="4.10" departSpeed="0.00" departDelay="0.00" arrival="97.00" arrivalLane="3o_0" arrivalPos="492.80" arrivalSpeed="10.69" duration="83.00" routeLength="990.53" waitingTime="1.00" waitingCount="1" stopTime="0.00" timeLoss="14.42" rerouteNo="0" devices="tripinfo_WE_14" vType="car" speedFactor="1.03" vaporized=""/>
    <tripinfo id="SN_23" depart="23.00" departLane="3i_0" departPos="4.10" departSpeed="0.00" departDelay="0.00" arrival="113.00" arrivalLane="4o_0" arrivalPos="492.80" arrivalSpeed="10.39" duration="90.00" routeLength="995.90" waitingTime="0.00" waitingCount="0" stopTime="0.00" timeLoss="14.13" rerouteNo="0" devices="tripinfo_SN_23" vType="car" speedFactor="0.94" vaporized=""/>
    <tripinfo id="SN_21" depart="21.00" departLane="3i_0" departPos="4.10" departSpeed="0.00" departDelay="0.00" arrival="115.00" arrivalLane="1o_0" arrivalPos="492.80" arrivalSpeed="9.26" duration="94.00" routeLength="995.70" waitingTime="0.00" waitingCount="0" stopTime="0.00" timeLoss="13.71" rerouteNo="0" devices="tripinfo_SN_21" vType="car" speedFactor="0.89" vaporized=""/>
    <tripinfo id="WE_24" depart="24.00" departLane="1i_0" departPos="4.10" departSpeed="0.00" departDelay="0.00" arrival="115.00" arrivalLane="3o_0" arrivalPos="492.80" arrivalSpeed="8.51" duration="91.00" routeLength="990.53" waitingTime="0.00" waitingCount="0" stopTime="0.00" timeLoss="8.30" rerouteNo="0" devices="tripinfo_WE_24" vType="car" speedFactor="0.86" vaporized=""/>
    <tripinfo id="EW_17" depart="17.00" departLane="4i_0" departPos="4.10" departSpeed="0.00" departDelay="0.00" arrival="116.00" arrivalLane="2o_0" arrivalPos="492.80" arrivalSpeed="8.69" duration="99.00" routeLength="995.70" waitingTime="1.00" waitingCount="1" stopTime="0.00" timeLoss="13.59" rerouteNo="0" devices="tripinfo_EW_17" vType="car" speedFactor="0.83" vaporized=""/>
    <tripinfo id="WE_29" depart="29.00" departLane="1i_0" departPos="4.10" departSpeed="0.00" departDelay="0.00" arrival="117.00" arrivalLane="3o_0" arrivalPos="492.80" arrivalSpeed="10.95" duration="88.00" routeLength="990.53" waitingTime="0.00" waitingCount="0" stopTime="0.00" timeLoss="22.84" rerouteNo="0" devices="tripinfo_WE_29" vType="car" speedFactor="1.09" vaporized=""/>
    <tripinfo id="SN_37" depart="37.00" departLane="3i_0" departPos="4.10" departSpeed="0.00" departDelay="0.00" arrival="117.00" arrivalLane="1o_0" arrivalPos="492.80" arrivalSpeed="11.07" duration="80.00" routeLength="995.70" waitingTime="0.00" waitingCount="0" stopTime="0.00" timeLoss="10.31" rerouteNo="0" devices="tripinfo_SN_37" vType="car" speedFactor="1.03" vaporized=""/>
    <tripinfo id="EW_19" depart="20.00" departLane="4i_0" departPos="4.10" departSpeed="0.00" departDelay="1.00" arrival="118.00" arrivalLane="2o_0" arrivalPos="492.80" arrivalSpeed="11.12" duration="98.00" routeLength="995.70" waitingTime="2.00" waitingCount="2" stopTime="0.00" timeLoss="29.66" rerouteNo="0" devices="tripinfo_EW_19" vType="car" speedFactor="1.05" vaporized=""/>
    <tripinfo id="SN_42" depart="42.00" departLane="3i_0" departPos="4.10" departSpeed="0.00" departDelay="0.00" arrival="118.00" arrivalLane="4o_0" arrivalPos="492.80" arrivalSpeed="10.79" duration="76.00" routeLength="995.90" waitingTime="0.00" waitingCount="0" stopTime="0.00" timeLoss="8.25" rerouteNo="0" devices="tripinfo_SN_42" vType="car" speedFactor="1.05" vaporized=""/>
    <tripinfo id="SN_46" depart="46.00" departLane="3i_0" departPos="4.10" departSpeed="0.00" departDelay="0.00" arrival="119.00" arrivalLane="2o_0" arrivalPos="492.80" arrivalSpeed="11.93" duration="73.00" routeLength="990.53" waitingTime="0.00" waitingCount="0" stopTime="0.00" timeLoss="10.33" rerouteNo="0" devices="tripinfo_SN_46" vType="car" speedFactor="1.12" vaporized=""/>
    <tripinfo id="NS_49" depart="49.00" departLane="2i_0" departPos="4.10" departSpeed="0.00" departDelay="0.00" arrival="133.00" arrivalLane="1o_0" arrivalPos="492.80" arrivalSpeed="10.42" duration="84.00" routeLength="995.90" waitingTime="0.00" waitingCount="0" stopTime="0.00" timeLoss="8.39" rerouteNo="0" devices="tripinfo_NS_49" vType="car" speedFactor="0.94" vaporized=""/>
    <tripinfo id="NS_57" depart="57.00" departLane="2i_0" departPos="4.10" departSpeed="0.00" departDelay="0.00" arrival="134.00" arrivalLane="1o_0" arrivalPos="492.80" arrivalSpeed="11.83" duration="77.00" routeLength="995.90" waitingTime="0.00" waitingCount="0" stopTime="0.00" timeLoss="16.00" rerouteNo="0" devices="tripinfo_NS_57" vType="car" speedFactor="1.16" vaporized=""/>
    <tripinfo id="WE_49" depart="49.00" departLane="1i_0" departPos="4.10" departSpeed="0.00" departDelay="0.00" arrival="140.00" arrivalLane="4o_0" arrivalPos="492.80" arrivalSpeed="9.44" duration="91.00" routeLength="995.70" waitingTime="1.00" waitingCount="1" stopTime="0.00" timeLoss="14.38" rerouteNo="0" devices="tripinfo_WE_49" vType="car" speedFactor="0.93" vaporized=""/>
    <tripinfo id="EW_56" depart="56.00" departLane="4i_0" departPos="4.10" departSpeed="0.00" departDelay="0.00" arrival="144.00" arrivalLane="1o_0" arrivalPos="492.80" arrivalSpeed="10.37" duration="88.00" routeLength="990.53" waitingTime="0.00" waitingCount="0" stopTime="0.00" timeLoss="12.86" rerouteNo="0" devices="tripinfo_EW_56" vType="car" speedFactor="0.94" vaporized=""/>
    <tripinfo id="SN_48" depart="48.00" departLane="3i_0" departPos="4.10" departSpeed="0.00" departDelay="0.00" arrival="146.00" arrivalLane="1o_0" arrivalPos="492.80" arrivalSpeed="10.31" duration="98.00" routeLength="995.70" waitingTime="9.00" waitingCount="2" stopTime="0.00" timeLoss="26.38" rerouteNo="0" devices="tripinfo_SN_48" vType="car" speedFactor="0.99" vaporized=""/>
    <tripinfo id="EW_49" depart="49.00" departLane="4i_0" departPos="4.10" departSpeed="0.00" departDelay="0.00" arrival="146.00" arrivalLane="3o_0" arrivalPos="492.80" arrivalSpeed="8.92" duration="97.00" routeLength="995.90" waitingTime="1.00" waitingCount="1" stopTime="0.00" timeLoss="16.74" rerouteNo="0" devices="tripinfo_EW_49" vType="car" speedFactor="0.88" vaporized=""/>
    <tripinfo id="SN_60" depart="60.00" departLane="3i_0" departPos="4.10" departSpeed="0.00" departDelay="0.00" arrival="148.00" arrivalLane="4o_0" arrivalPos="492.80" arrivalSpeed="10.91" duration="88.00" routeLength="995.90" waitingTime="4.00" waitingCount="2" stopTime="0.00" timeLoss="18.09" rerouteNo="0" devices="tripinfo_SN_60" vType="car" speedFactor="1.02" vaporized=""/>
    <tripinfo id="EW_61" depart="61.00" departLane="4i_0" departPos="4.10" departSpeed="0.00" departDelay="0.00" arrival="148.00" arrivalLane="1o_0" arrivalPos="492.80" arrivalSpeed="11.21" duration="87.00" routeLength="990.53" waitingTime="2.00" waitingCount="1" stopTime="0.00" timeLoss="16.96" rerouteNo="0" devices="tripinfo_EW_61" vType="car" speedFactor="1.01" vaporized=""/>
    <tripinfo id="SN_64" depart="64.00" departLane="3i_0" departPos="10.10" departSpeed="0.00" departDelay="0.00" arrival="155.00" arrivalLane="4o_0" arrivalPos="492.80" arrivalSpeed="10.68" duration="91.00" routeLength="989.90" waitingTime="0.00" waitingCount="0" stopTime="0.00" timeLoss="19.65" rerouteNo="0" devices="tripinfo_SN_64" vType="truck" speedFactor="0.99" vaporized=""/>
    <tripinfo id="WE_87" depart="87.00" departLane="1i_0" departPos="4.10" departSpeed="0.00" departDelay="0.00" arrival="161.00" arrivalLane="2o_0" arrivalPos="492.80" arrivalSpeed="12.24" duration="74.00" routeLength="995.90" waitingTime="0.00" waitingCount="0" stopTime="0.00" timeLoss="12.30" rerouteNo="0" devices="tripinfo_WE_87" vType="car" speedFactor="1.15" vaporized=""/>
    <tripinfo id="SN_72" depart="72.00" departLane="3i_0" departPos="4.10" departSpeed="0.00" departDelay="0.00" arrival="167.00" arrivalLane="4o_0" arrivalPos="492.80" arrivalSpeed="9.52" duration="95.00" routeLength="995.90" waitingTime="0.00" waitingCount="0" stopTime="0.00" timeLoss="13.65" rerouteNo="0" devices="tripinfo_SN_72" vType="car" speedFactor="0.87" vaporized=""/>
    <tripinfo id="SN_80" depart="80.00" departLane="3i_0" departPos="10.10" departSpeed="0.00" departDelay="0.00" arrival="168.00" arrivalLane="1o_0" arrivalPos="492.80" arrivalSpeed="11.48" duration="88.00" routeLength="989.70" waitingTime="0.00" waitingCount="0" stopTime="0.00" timeLoss="20.88" rerouteNo="0" devices="tripinfo_SN_80" vType="truck" speedFactor="1.07" vaporized=""/>
    <tripinfo id="NS_71" depart="71.00" departLane="2i_0" departPos="4.10" departSpeed="0.00" departDelay="0.00" arrival="169.00" arrivalLane="4o_0" arrivalPos="492.80" arrivalSpeed="9.81" duration="98.00" routeLength="990.53" waitingTime="8.00" waitingCount="1" stopTime="0.00" timeLoss="18.47" rerouteNo="0" devices="tripinfo_NS_71" vType="car" speedFactor="0.89" vaporized=""/>
    <tripinfo id="SN_75" depart="75.00" departLane="3i_0" departPos="4.10" departSpeed="0.00" departDelay="0.00" arrival="171.00" arrivalLane="4o_0" arrivalPos="492.80" arrivalSpeed="9.00" duration="96.00" routeLength="995.90" waitingTime="0.00" waitingCount="0" stopTime="0.00" timeLoss="18.48" rerouteNo="0" devices="tripinfo_SN_75" vType="car" speedFactor="0.92" vaporized=""/>
    <tripinfo id="NS_77" depart="78.00" departLane="2i_0" departPos="10.10" departSpeed="0.00" departDelay="1.00" arrival="175.00" arrivalLane="4o_0" arrivalPos="492.80" arrivalSpeed="10.71" duration="97.00" routeLength="984.53" waitingTime="1.00" waitingCount="1" stopTime="0.00" timeLoss="24.68" rerouteNo="0" devices="tripinfo_NS_77" vType="truck" speedFactor="0.97" vaporized=""/>
    <tripinfo id="SN_83" depart="84.00" departLane="3i_0" departPos="4.10" departSpeed="0.00" departDelay="1.00" arrival="177.00" arrivalLane="2o_0" arrivalPos="492.80" arrivalSpeed="9.41" duration="93.00" routeLength="990.53" waitingTime="0.00" waitingCount="0" stopTime="0.00" timeLoss="16.76" rerouteNo="0" devices="tripinfo_SN_83" vType="car" speedFactor="0.93" vaporized=""/>
    <tripinfo id="NS_88" depart="88.00" departLane="2i_0" departPos="4.10" departSpeed="0.00" departDelay="0.00" arrival="180.00" arrivalLane="4o_0" arrivalPos="492.80" arrivalSpeed="11.10" duration="92.00" routeLength="990.53" waitingTime="0.00" waitingCount="0" stopTime="0.00" timeLoss="21.33" rerouteNo="0" devices="tripinfo_NS_88" vType="car" speedFactor="1.01" vaporized=""/>
    <tripinfo id="NS_72" depart="74.00" departLane="2i_0" departPos="4.10" departSpeed="0.00" departDelay="2.00" arrival="181.00" arrivalLane="3o_0" arrivalPos="492.80" arrivalSpeed="9.14" duration="107.00" routeLength="995.70" waitingTime="2.00" waitingCount="2" stopTime="0.00" timeLoss="20.75" rerouteNo="0" devices="tripinfo_NS_72" vType="car" speedFactor="0.83" vaporized=""/>
    <tripinfo id="NS_84" depart="84.00" departLane="2i_0" departPos="4.10" departSpeed="0.00" departDelay="0.00" arrival="182.00" arrivalLane="3o_0" arrivalPos="492.80" arrivalSpeed="10.61" duration="98.00" routeLength="995.70" waitingTime="0.00" waitingCount="0" stopTime="0.00" timeLoss="38.05" rerouteNo="0" devices="tripinfo_NS_84" vType="car" speedFactor="1.18" vaporized=""/>
    <tripinfo id="SN_100" depart="100.00" departLane="3i_0" departPos="4.10" departSpeed="0.00" departDelay="0.00" arrival="182.00" arrivalLane="4o_0" arrivalPos="492.80" arrivalSpeed="10.03" duration="82.00" routeLength="995.90" waitingTime="0.00" waitingCount="0" stopTime="0.00" timeLoss="11.95" rerouteNo="0" devices="tripinfo_SN_100" vType="car" speedFactor="1.02" vaporized=""/>
    <tripinfo id="NS_92" depart="92.00" departLane="2i_0" departPos="4.10" departSpeed="0.00" departDelay="0.00" arrival="183.00" arrivalLane="4o_0" arrivalPos="492.80" arrivalSpeed="11.82" duration="91.00" routeLength="990.53" waitingTime="0.00" waitingCount="0" stopTime="0.00" timeLoss="30.89" rerouteNo="0" devices="tripinfo_NS_92" vType="car" speedFactor="1.17" vaporized=""/>
    <tripinfo id="NS_106" depart="108.00" departLane="2i_0" departPos="4.10" departSpeed="0.00" departDelay="2.00" arrival="184.00" arrivalLane="3o_0" arrivalPos="492.80" arrivalSpeed="12.18" duration="76.00" routeLength="995.70" waitingTime="0.00" waitingCount="0" stopTime="0.00" timeLoss="15.90" rerouteNo="0" devices="tripinfo_NS_106" vType="car" speedFactor="1.18" vaporized=""/>
    <tripinfo id="EW_108" depart="108.00" departLane="4i_0" departPos="4.10" departSpeed="0.00" departDelay="0.00" arrival="185.00" arrivalLane="1o_0" arrivalPos="492.80" arrivalSpeed="11.04" duration="77.00" routeLength="990.53" waitingTime="0.00" waitingCount="0" stopTime="0.00" timeLoss="7.79" rerouteNo="0" devices="tripinfo_EW_108" vType="car" speedFactor="1.03" vaporized=""/>
    <tripinfo id="NS_105" depart="105.00" departLane="2i_0" departPos="4.10" departSpeed="0.00" departDelay="0.00" arrival="189.00" arrivalLane="1o_0" arrivalPos="492.80" arrivalSpeed="9.60" duration="84.00" routeLength="995.90" waitingTime="0.00" waitingCount="0" stopTime="0.00" timeLoss="11.32" rerouteNo="0" devices="tripinfo_NS_105" vType="car" speedFactor="0.97" vaporized=""/>
    <tripinfo id="WE_100" depart="100.00" departLane="1i_0" departPos="4.10" departSpeed="0.00" departDelay="0.00" arrival="193.00" arrivalLane="4o_0" arrivalPos="492.80" arrivalSpeed="9.93" duration="93.00" routeLength="995.70" waitingTime="5.00" waitingCount="1" stopTime="0.00" timeLoss="22.00" rerouteNo="0" devices="tripinfo_WE_100" vType="car" speedFactor="0.99" vaporized=""/>
    <tripinfo id="SN_106" depart="106.00" departLane="3i_0" departPos="4.10" departSpeed="0.00" departDelay="0.00" arrival="195.00" arrivalLane="4o_0" arrivalPos="492.80" arrivalSpeed="12.21" duration="89.00" routeLength="995.90" waitingTime="6.00" waitingCount="1" stopTime="0.00" timeLoss="24.44" rerouteNo="0" devices="tripinfo_SN_106" vType="car" speedFactor="1.10" vaporized=""/>
    <tripinfo id="EW_111" depart="111.00" departLane="4i_0" departPos="4.10" departSpeed="0.00" departDelay="0.00" arrival="196.00" arrivalLane="2o_0" arrivalPos="492.80" arrivalSpeed="10.95" duration="85.00" routeLength="995.70" waitingTime="3.00" waitingCount="1" stopTime="0.00" timeLoss="20.01" rerouteNo="0" devices="tripinfo_EW_111" vType="car" speedFactor="1.09" vaporized=""/>
    <tripinfo id="NS_115" depart="116.00" departLane="2i_0" departPos="4.10" departSpeed="0.00" departDelay="1.00" arrival="202.00" arrivalLane="3o_0" arrivalPos="492.80" arrivalSpeed="11.50" duration="86.00" routeLength="995.70" waitingTime="6.00" waitingCount="1" stopTime="0.00" timeLoss="20.57" rerouteNo="0" devices="tripinfo_NS_115" vType="car" speedFactor="1.09" vaporized=""/>
    <tripinfo id="WE_107" depart="107.00" departLane="1i_0" departPos="4.10" departSpeed="0.00" departDelay="0.00" arrival="207.00" arrivalLane="2o_0" arrivalPos="492.80" arrivalSpeed="9.56" duration="100.00" routeLength="995.90" waitingTime="6.00" waitingCount="4" stopTime="0.00" timeLoss="21.66" rerouteNo="0" devices="tripinfo_WE_107" vType="car" speedFactor="0.90" vaporized=""/>
    <tripinfo id="SN_110" depart="110.00" departLane="3i_0" departPos="4.10" departSpeed="0.00" departDelay="0.00" arrival="208.00" arrivalLane="1o_0" arrivalPos="492.80" arrivalSpeed="9.44" duration="98.00" routeLength="995.70" waitingTime="5.00" waitingCount="1" stopTime="0.00" timeLoss="23.62" rerouteNo="0" devices="tripinfo_SN_110" vType="car" speedFactor="0.96" vaporized=""/>
    <tripinfo id="SN_111" depart="113.00" departLane="3i_0" departPos="4.10" departSpeed="0.00" departDelay="2.00" arrival="211.00" arrivalLane="1o_0" arrivalPos="492.80" arrivalSpeed="10.33" duration="98.00" routeLength="995.70" waitingTime="6.00" waitingCount="2" stopTime="0.00" timeLoss="29.98" rerouteNo="0" devices="tripinfo_SN_111" vType="car" speedFactor="1.04" vaporized=""/>
    <tripinfo id="NS_123" depart="123.00" departLane="2i_0" departPos="4.10" departSpeed="0.00" departDelay="0.00" arrival="216.00" arrivalLane="3o_0" arrivalPos="492.80" arrivalSpeed="8.98" duration="93.00" routeLength="995.70" waitingTime="0.00" waitingCount="0" stopTime="0.00" timeLoss="11.98" rerouteNo="0" devices="tripinfo_NS_123" vType="car" speedFactor="0.88" vaporized=""/>
    <tripinfo id="EW_113" depart="113.00" departLane="4i_0" departPos="4.10" departSpeed="0.00" departDelay="0.00" arrival="217.00" arrivalLane="3o_0" arrivalPos="492.80" arrivalSpeed="11.56" duration="104.00" routeLength="995.90" waitingTime="15.00" waitingCount="4" stopTime="0.00" timeLoss="36.30" rerouteNo="0" devices="tripinfo_EW_113" vType="car" speedFactor="1.04" vaporized=""/>
    <tripinfo id="NS_128" depart="128.00" departLane="2i_0" departPos="4.10" departSpeed="0.00" departDelay="0.00" arrival="220.00" arrivalLane="4o_0" arrivalPos="492.80" arrivalSpeed="8.53" duration="92.00" routeLength="990.53" waitingTime="0.00" waitingCount="0" stopTime="0.00" timeLoss="9.21" rerouteNo="0" devices="tripinfo_NS_128" vType="car" speedFactor="0.85" vaporized=""/>
    <tripinfo id="NS_129" depart="131.00" departLane="2i_0" departPos="4.10" departSpeed="0.00" departDelay="2.00" arrival="220.00" arrivalLane="3o_0" arrivalPos="492.80" arrivalSpeed="11.16" duration="89.00" routeLength="995.70" waitingTime="1.00" waitingCount="1" stopTime="0.00" timeLoss="18.92" rerouteNo="0" devices="tripinfo_NS_129" vType="car" speedFactor="1.02" vaporized=""/>
    <tripinfo id="SN_117" depart="117.00" departLane="3i_0" departPos="4.10" departSpeed="0.00" departDelay="0.00" arrival="221.00" arrivalLane="1o_0" arrivalPos="492.80" arrivalSpeed="11.07" duration="104.00" routeLength="995.70" waitingTime="6.00" waitingCount="3" stopTime="0.00" timeLoss="32.75" rerouteNo="0" devices="tripinfo_SN_117" vType="car" speedFactor="1.00" vaporized=""/>
    <tripinfo id="WE_125" depart="125.00" departLane="1i_0" departPos="4.10" departSpeed="0.00" departDelay="0.00" arrival="224.00" arrivalLane="2o_0" arrivalPos="492.80" arrivalSpeed="8.87" duration="99.00" routeLength="995.90" waitingTime="2.00" waitingCount="1" stopTime="0.00" timeLoss="15.28" rerouteNo="0" devices="tripinfo_WE_125" vType="car" speedFactor="0.85" vaporized=""/>
    <tripinfo id="SN_120" depart="120.00" departLane="3i_0" departPos="4.10" departSpeed="0.00" departDelay="0.00" arrival="229.00" arrivalLane="4o_0" arrivalPos="492.80" arrivalSpeed="9.85" duration="109.00" routeLength="995.90" waitingTime="1.00" waitingCount="1" stopTime="0.00" timeLoss="29.88" rerouteNo="0" devices="tripinfo_SN_120" vType="car" speedFactor="0.90" vaporized=""/>
    <tripinfo id="NS_135" depart="135.00" departLane="2i_0" departPos="4.10" departSpeed="0.00" departDelay="0.00" arrival="229.00" arrivalLane="3o_0" arrivalPos="492.80" arrivalSpeed="10.04" duration="94.00" routeLength="995.70" waitingTime="5.00" waitingCount="3" stopTime="0.00" timeLoss="22.94" rerouteNo="0" devices="tripinfo_NS_135" vType="car" speedFactor="1.00" vaporized=""/>
    <tripinfo id="SN_128" depart="128.00" departLane="3i_0" departPos="4.10" departSpeed="0.00" departDelay="0.00" arrival="230.00" arrivalLane="4o_0" arrivalPos="492.80" arrivalSpeed="10.83" duration="102.00" routeLength="995.90" waitingTime="0.00" waitingCount="0" stopTime="0.00" timeLoss="41.60" rerouteNo="0" devices="tripinfo_SN_128" vType="car" speedFactor="1.17" vaporized=""/>
    <tripinfo id="NS_137" depart="138.00" departLane="2i_0" departPos="4.10" departSpeed="0.00" departDelay="1.00" arrival="237.00" arrivalLane="3o_0" arrivalPos="492.80" arrivalSpeed="9.98" duration="99.00" routeLength="995.70" waitingTime="0.00" waitingCount="0" stopTime="0.00" timeLoss="19.73" rerouteNo="0" devices="tripinfo_NS_137" vType="car" speedFactor="0.90" vaporized=""/>
    <tripinfo id="EW_155" depart="155.00" departLane="4i_0" departPos="4.10" departSpeed="0.00" departDelay="0.00" arrival="238.00" arrivalLane="3o_0" arrivalPos="492.80" arrivalSpeed="11.47" duration="83.00" routeLength="995.90" waitingTime="0.00" waitingCount="0" stopTime="0.00" timeLoss="17.66" rerouteNo="0" devices="tripinfo_EW_155" vType="car" speedFactor="1.08" vaporized=""/>
    <tripinfo id="NS_140" depart="140.00" departLane="2i_0" departPos="4.10" departSpeed="0.00" departDelay="0.00" arrival="240.00" arrivalLane="3o_0" arrivalPos="492.80" arrivalSpeed="10.93" duration="100.00" routeLength="995.70" waitingTime="2.00" waitingCount="1" stopTime="0.00" timeLoss="30.83" rerouteNo="0" devices="tripinfo_NS_140" vType="car" speedFactor="1.02" vaporized=""/>
    <tripinfo id="EW_158" depart="158.00" departLane="4i_0" departPos="4.10" departSpeed="0.00" departDelay="0.00" arrival="240.00" arrivalLane="1o_0" arrivalPos="492.80" arrivalSpeed="10.54" duration="82.00" routeLength="990.53" waitingTime="2.00" waitingCount="1" stopTime="0.00" timeLoss="11.95" rerouteNo="0" devices="tripinfo_EW_158" vType="car" speedFactor="1.02" vaporized=""/>
    <tripinfo id="SN_131" depart="131.00" departLane="3i_0" departPos="4.10" departSpeed="0.00" departDelay="0.00" arrival="241.00" arrivalLane="1o_0" arrivalPos="492.80" arrivalSpeed="11.38" duration="110.00" routeLength="995.70" waitingTime="13.00" waitingCount="1" stopTime="0.00" timeLoss="45.59" rerouteNo="0" devices="tripinfo_SN_131" vType="car" speedFactor="1.10" vaporized=""/>
    <tripinfo id="NS_156" depart="156.00" departLane="2i_0" departPos="4.10" departSpeed="0.00" departDelay="0.00" arrival="242.00" arrivalLane="3o_0" arrivalPos="492.80" arrivalSpeed="11.33" duration="86.00" routeLength="995.70" waitingTime="1.00" waitingCount="1" stopTime="0.00" timeLoss="22.33" rerouteNo="0" devices="tripinfo_NS_156" vType="car" speedFactor="1.12" vaporized=""/>
    <tripinfo id="WE_151" depart="151.00" departLane="1i_0" departPos="4.10" departSpeed="0.00" departDelay="0.00" arrival="243.00" arrivalLane="4o_0" arrivalPos="492.80" arrivalSpeed="10.38" duration="92.00" routeLength="995.70" waitingTime="4.00" waitingCount="2" stopTime="0.00" timeLoss="18.70" rerouteNo="0" devices="tripinfo_WE_151" vType="car" speedFactor="0.97" vaporized=""/>
    <tripinfo id="SN_138" depart="139.00" departLane="3i_0" departPos="4.10" departSpeed="0.00" departDelay="1.00" arrival="246.00" arrivalLane="2o_0" arrivalPos="492.80" arrivalSpeed="12.57" duration="107.00" routeLength="990.53" waitingTime="12.00" waitingCount="1" stopTime="0.00" timeLoss="44.84" rerouteNo="0" devices="tripinfo_SN_138" vType="car" speedFactor="1.14" vaporized=""/>
    <tripinfo id="SN_133" depart="135.00" departLane="3i_0" departPos="10.10" departSpeed="0.00" departDelay="2.00" arrival="250.00" arrivalLane="4o_0" arrivalPos="492.80" arrivalSpeed="11.11" duration="115.00" routeLength="989.90" waitingTime="12.00" waitingCount="1" stopTime="0.00" timeLoss="44.53" rerouteNo="0" devices="tripinfo_SN_133" vType="truck" speedFactor="1.00" vaporized=""/>
    <tripinfo id="NS_171" depart="171.00" departLane="2i_0" departPos="4.10" departSpeed="0.00" departDelay="0.00" arrival="252.00" arrivalLane="4o_0" arrivalPos="492.80" arrivalSpeed="10.87" duration="81.00" routeLength="990.53" waitingTime="0.00" waitingCount="0" stopTime="0.00" timeLoss="13.42" rerouteNo="0" devices="tripinfo_NS_171" vType="car" speedFactor="1.04" vaporized=""/>
    <tripinfo id="EW_159" depart="160.00" departLane="4i_0" departPos="4.10" departSpeed="0.00" departDelay="1.00" arrival="255.00" arrivalLane="2o_0" arrivalPos="492.80" arrivalSpeed="9.87" duration="95.00" routeLength="995.70" waitingTime="8.00" waitingCount="2" stopTime="0.00" timeLoss="23.41" rerouteNo="0" devices="tripinfo_EW_159" vType="car" speedFactor="0.99" vaporized=""/>
    <tripinfo id="NS_175" depart="177.00" departLane="2i_0" departPos="4.10" departSpeed="0.00" departDelay="2.00" arrival="258.00" arrivalLane="4o_0" arrivalPos="492.80" arrivalSpeed="11.34" duration="81.00" routeLength="990.53" waitingTime="0.00" waitingCount="0" stopTime="0.00" timeLoss="12.12" rerouteNo="0" devices="tripinfo_NS_175" vType="car" speedFactor="1.02" vaporized=""/>
    <tripinfo id="EW_166" depart="167.00" departLane="4i_0" departPos="4.10" departSpeed="0.00" departDelay="1.00" arrival="263.00" arrivalLane="1o_0" arrivalPos="492.80" arrivalSpeed="8.58" duration="96.00" routeLength="990.53" waitingTime="2.00" waitingCount="1" stopTime="0.00" timeLoss="16.26" rerouteNo="0" devices="tripinfo_EW_166" vType="car" speedFactor="0.88" vaporized=""/>
    <tripinfo id="SN_160" depart="160.00" departLane="3i_0" departPos="4.10" departSpeed="0.00" departDelay="0.00" arrival="265.00" arrivalLane="1o_0" arrivalPos="492.80" arrivalSpeed="9.70" duration="105.00" routeLength="995.70" waitingTime="5.00" waitingCount="2" stopTime="0.00" timeLoss="29.29" rerouteNo="0" devices="tripinfo_SN_160" vType="car" speedFactor="0.94" vaporized=""/>
    <tripinfo id="EW_167" depart="171.00" departLane="4i_0" departPos="10.10" departSpeed="0.00" departDelay="4.00" arrival="267.00" arrivalLane="1o_0" arrivalPos="492.80" arrivalSpeed="10.18" duration="96.00" routeLength="984.53" waitingTime="1.00" waitingCount="1" stopTime="0.00" timeLoss="22.79" rerouteNo="0" devices="tripinfo_EW_167" vType="truck" speedFactor="0.95" vaporized=""/>
    <tripinfo id="NS_177" depart="180.00" departLane="2i_0" departPos="4.10" departSpeed="0.00" departDelay="3.00" arrival="270.00" arrivalLane="1o_0" arrivalPos="492.80" arrivalSpeed="11.05" duration="90.00" routeLength="995.90" waitingTime="3.00" waitingCount="2" stopTime="0.00" timeLoss="20.36" rerouteNo="0" devices="tripinfo_NS_177" vType="car" speedFactor="1.02" vaporized=""/>
    <tripinfo id="SN_184" depart="184.00" departLane="3i_0" departPos="4.10" departSpeed="0.00" departDelay="0.00" arrival="272.00" arrivalLane="4o_0" arrivalPos="492.80" arrivalSpeed="9.88" duration="88.00" routeLength="995.90" waitingTime="3.00" waitingCount="1" stopTime="0.00" timeLoss="13.26" rerouteNo="0" devices="tripinfo_SN_184" vType="car" speedFactor="0.96" vaporized=""/>
    <tripinfo id="EW_170" depart="175.00" departLane="4i_0" departPos="4.10" departSpeed="0.00" departDelay="5.00" arrival="275.00" arrivalLane="1o_0" arrivalPos="492.80" arrivalSpeed="9.82" duration="100.00" routeLength="990.53" waitingTime="1.00" waitingCount="1" stopTime="0.00" timeLoss="23.09" rerouteNo="0" devices="tripinfo_EW_170" vType="car" speedFactor="0.91" vaporized=""/>
    <tripinfo id="NS_180" depart="183.00" departLane="2i_0" departPos="4.10" departSpeed="0.00" departDelay="3.00" arrival="277.00" arrivalLane="1o_0" arrivalPos="492.80" arrivalSpeed="9.28" duration="94.00" routeLength="995.90" waitingTime="2.00" waitingCount="1" stopTime="0.00" timeLoss="18.93" rerouteNo="0" devices="tripinfo_NS_180" vType="car" speedFactor="0.94" vaporized=""/>
    <tripinfo id="NS_187" depart="187.00" departLane="2i_0" departPos="4.10" departSpeed="0.00" departDelay="0.00" arrival="277.00" arrivalLane="4o_0" arrivalPos="492.80" arrivalSpeed="9.97" duration="90.00" routeLength="990.53" waitingTime="1.00" waitingCount="1" stopTime="0.00" timeLoss="18.25" rerouteNo="0" devices="tripinfo_NS_187" vType="car" speedFactor="0.98" vaporized=""/>
    <tripinfo id="WE_194" depart="194.00" departLane="1i_0" departPos="4.10" departSpeed="0.00" departDelay="0.00" arrival="277.00" arrivalLane="3o_0" arrivalPos="492.80" arrivalSpeed="10.03" duration="83.00" routeLength="990.53" waitingTime="1.00" waitingCount="1" stopTime="0.00" timeLoss="10.80" rerouteNo="0" devices="tripinfo_WE_194" vType="car" speedFactor="0.98" vaporized=""/>
    <tripinfo id="EW_181" depart="185.00" departLane="4i_0" departPos="4.10" departSpeed="0.00" departDelay="4.00" arrival="279.00" arrivalLane="1o_0" arrivalPos="492.80" arrivalSpeed="11.64" duration="94.00" routeLength="990.53" waitingTime="0.00" waitingCount="0" stopTime="0.00" timeLoss="27.06" rerouteNo="0" devices="tripinfo_EW_181" vType="car" speedFactor="1.06" vaporized=""/>