<?xml version="1.0" encoding="UTF-8"?>

<!-- generated on 2024-05-05 16:13:58 by Eclipse SUMO sumo Version 1.19.0
<configuration xmlns:xsi="http://www.w3.org/2001/XMLSchema-instance" xsi:noNamespaceSchemaLocation="http://sumo.dlr.de/xsd/sumoConfiguration.xsd">

    <input>
        <net-file value="twoone.net.xml"/>
        <route-files value="route_gen.rou.xml"/>
    </input>

    <output>
        <tripinfo-output value="tripinfo_epi118.xml"/>
    </output>

    <report>
        <no-warnings value="true"/>
    </report>

    <traci_server>
        <remote-port value="43905"/>
    </traci_server>

</configuration>
-->

<tripinfos xmlns:xsi="http://www.w3.org/2001/XMLSchema-instance" xsi:noNamespaceSchemaLocation="http://sumo.dlr.de/xsd/tripinfo_file.xsd">
    <tripinfo id="NS_1" depart="1.00" departLane="2i_0" departPos="4.10" departSpeed="0.00" departDelay="0.00" arrival="78.00" arrivalLane="3o_0" arrivalPos="492.80" arrivalSpeed="11.14" duration="77.00" routeLength="995.70" waitingTime="0.00" waitingCount="0" stopTime="0.00" timeLoss="10.23" rerouteNo="0" devices="tripinfo_NS_1" vType="car" speedFactor="1.06" vaporized=""/>
    <tripinfo id="WE_6" depart="6.00" departLane="1i_0" departPos="4.10" departSpeed="0.00" departDelay="0.00" arrival="82.00" arrivalLane="3o_0" arrivalPos="492.80" arrivalSpeed="10.56" duration="76.00" routeLength="990.53" waitingTime="0.00" waitingCount="0" stopTime="0.00" timeLoss="7.41" rerouteNo="0" devices="tripinfo_WE_6" vType="car" speedFactor="1.03" vaporized=""/>
    <tripinfo id="NS_3" depart="4.00" departLane="2i_0" departPos="4.10" departSpeed="0.00" departDelay="1.00" arrival="83.00" arrivalLane="1o_0" arrivalPos="492.80" arrivalSpeed="10.16" duration="79.00" routeLength="995.90" waitingTime="0.00" waitingCount="0" stopTime="0.00" timeLoss="8.46" rerouteNo="0" devices="tripinfo_NS_3" vType="car" speedFactor="1.01" vaporized=""/>
    <tripinfo id="NS_18" depart="18.00" departLane="2i_0" departPos="4.10" departSpeed="0.00" departDelay="0.00" arrival="106.00" arrivalLane="1o_0" arrivalPos="492.80" arrivalSpeed="9.19" duration="88.00" routeLength="995.90" waitingTime="0.00" waitingCount="0" stopTime="0.00" timeLoss="8.22" rerouteNo="0" devices="tripinfo_NS_18" vType="car" speedFactor="0.89" vaporized=""/>
    <tripinfo id="NS_13" depart="13.00" departLane="2i_0" departPos="4.10" departSpeed="0.00" departDelay="0.00" arrival="108.00" arrivalLane="4o_0" arrivalPos="492.80" arrivalSpeed="7.98" duration="95.00" routeLength="990.53" waitingTime="0.00" waitingCount="0" stopTime="0.00" timeLoss="9.99" rerouteNo="0" devices="tripinfo_NS_13" vType="car" speedFactor="0.83" vaporized=""/>
    <tripinfo id="NS_19" depart="21.00" departLane="2i_0" departPos="4.10" departSpeed="0.00" departDelay="2.00" arrival="108.00" arrivalLane="1o_0" arrivalPos="492.80" arrivalSpeed="9.48" duration="87.00" routeLength="995.90" waitingTime="0.00" waitingCount="0" stopTime="0.00" timeLoss="11.39" rerouteNo="0" devices="tripinfo_NS_19" vType="car" speedFactor="0.94" vaporized=""/>
    <tripinfo id="WE_32" depart="32.00" departLane="1i_0" departPos="4.10" departSpeed="0.00" departDelay="0.00" arrival="108.00" arrivalLane="3o_0" arrivalPos="492.80" arrivalSpeed="12.00" duration="76.00" routeLength="990.53" waitingTime="0.00" waitingCount="0" stopTime="0.00" timeLoss="13.37" rerouteNo="0" devices="tripinfo_WE_32" vType="car" speedFactor="1.12" vaporized=""/>
    <tripinfo id="WE_26" depart="26.00" departLane="1i_0" departPos="4.10" departSpeed="0.00" departDelay="0.00" arrival="110.00" arrivalLane="4o_0" arrivalPos="492.80" arrivalSpeed="11.67" duration="84.00" routeLength="995.70" waitingTime="2.00" waitingCount="1" stopTime="0.00" timeLoss="18.40" rerouteNo="0" devices="tripinfo_WE_26" vType="car" speedFactor="1.09" vaporized=""/>
    <tripinfo id="WE_29" depart="29.00" departLane="1i_0" departPos="4.10" departSpeed="0.00" departDelay="0.00" arrival="111.00" arrivalLane="2o_0" arrivalPos="492.80" arrivalSpeed="11.52" duration="82.00" routeLength="995.90" waitingTime="0.00" waitingCount="0" stopTime="0.00" timeLoss="14.00" rerouteNo="0" devices="tripinfo_WE_29" vType="car" speedFactor="1.05" vaporized=""/>
    <tripinfo id="NS_23" depart="24.00" departLane="2i_0" departPos="4.10" departSpeed="0.00" departDelay="1.00" arrival="115.00" arrivalLane="1o_0" arrivalPos="492.80" arrivalSpeed="8.59" duration="91.00" routeLength="995.90" waitingTime="0.00" waitingCount="0" stopTime="0.00" timeLoss="8.03" rerouteNo="0" devices="tripinfo_NS_23" vType="car" speedFactor="0.86" vaporized=""/>
    <tripinfo id="NS_34" depart="34.00" departLane="2i_0" departPos="4.10" departSpeed="0.00" departDelay="0.00" arrival="119.00" arrivalLane="3o_0" arrivalPos="492.80" arrivalSpeed="9.57" duration="85.00" routeLength="995.70" waitingTime="0.00" waitingCount="0" stopTime="0.00" timeLoss="10.00" rerouteNo="0" devices="tripinfo_NS_34" vType="car" speedFactor="0.94" vaporized=""/>
    <tripinfo id="WE_44" depart="44.00" departLane="1i_0" departPos="4.10" departSpeed="0.00" departDelay="0.00" arrival="124.00" arrivalLane="3o_0" arrivalPos="492.80" arrivalSpeed="10.31" duration="80.00" routeLength="990.53" waitingTime="0.00" waitingCount="0" stopTime="0.00" timeLoss="7.87" rerouteNo="0" devices="tripinfo_WE_44" vType="car" speedFactor="0.97" vaporized=""/>
    <tripinfo id="NS_46" depart="46.00" departLane="2i_0" departPos="4.10" departSpeed="0.00" departDelay="0.00" arrival="135.00" arrivalLane="3o_0" arrivalPos="492.80" arrivalSpeed="8.72" duration="89.00" routeLength="995.70" waitingTime="0.00" waitingCount="0" stopTime="0.00" timeLoss="9.64" rerouteNo="0" devices="tripinfo_NS_46" vType="car" speedFactor="0.89" vaporized=""/>
    <tripinfo id="WE_50" depart="50.00" departLane="1i_0" departPos="4.10" departSpeed="0.00" departDelay="0.00" arrival="139.00" arrivalLane="4o_0" arrivalPos="492.80" arrivalSpeed="9.56" duration="89.00" routeLength="995.70" waitingTime="1.00" waitingCount="1" stopTime="0.00" timeLoss="14.51" rerouteNo="0" devices="tripinfo_WE_50" vType="car" speedFactor="0.95" vaporized=""/>
    <tripinfo id="NS_63" depart="63.00" departLane="2i_0" departPos="4.10" departSpeed="0.00" departDelay="0.00" arrival="141.00" arrivalLane="4o_0" arrivalPos="492.80" arrivalSpeed="13.01" duration="78.00" routeLength="990.53" waitingTime="0.00" waitingCount="0" stopTime="0.00" timeLoss="17.67" rerouteNo="0" devices="tripinfo_NS_63" vType="car" speedFactor="1.18" vaporized=""/>
    <tripinfo id="NS_47" depart="48.00" departLane="2i_0" departPos="4.10" departSpeed="0.00" departDelay="1.00" arrival="145.00" arrivalLane="3o_0" arrivalPos="492.80" arrivalSpeed="8.17" duration="97.00" routeLength="995.70" waitingTime="0.00" waitingCount="0" stopTime="0.00" timeLoss="11.35" rerouteNo="0" devices="tripinfo_NS_47" vType="car" speedFactor="0.83" vaporized=""/>
    <tripinfo id="NS_49" depart="51.00" departLane="2i_0" departPos="4.10" departSpeed="0.00" departDelay="2.00" arrival="147.00" arrivalLane="1o_0" arrivalPos="492.80" arrivalSpeed="9.14" duration="96.00" routeLength="995.90" waitingTime="0.00" waitingCount="0" stopTime="0.00" timeLoss="14.68" rerouteNo="0" devices="tripinfo_NS_49" vType="car" speedFactor="0.87" vaporized=""/>
    <tripinfo id="NS_58" depart="58.00" departLane="2i_0" departPos="4.10" departSpeed="0.00" departDelay="0.00" arrival="147.00" arrivalLane="3o_0" arrivalPos="492.80" arrivalSpeed="9.63" duration="89.00" routeLength="995.70" waitingTime="0.00" waitingCount="0" stopTime="0.00" timeLoss="12.74" rerouteNo="0" devices="tripinfo_NS_58" vType="car" speedFactor="0.93" vaporized=""/>
    <tripinfo id="NS_66" depart="66.00" departLane="2i_0" departPos="4.10" departSpeed="0.00" departDelay="0.00" arrival="149.00" arrivalLane="1o_0" arrivalPos="492.80" arrivalSpeed="10.30" duration="83.00" routeLength="995.90" waitingTime="0.00" waitingCount="0" stopTime="0.00" timeLoss="12.27" rerouteNo="0" devices="tripinfo_NS_66" vType="car" speedFactor="1.01" vaporized=""/>
    <tripinfo id="NS_69" depart="69.00" departLane="2i_0" departPos="10.10" departSpeed="0.00" departDelay="0.00" arrival="155.00" arrivalLane="3o_0" arrivalPos="492.80" arrivalSpeed="11.75" duration="86.00" routeLength="989.70" waitingTime="0.00" waitingCount="0" stopTime="0.00" timeLoss="19.23" rerouteNo="0" devices="tripinfo_NS_69" vType="truck" speedFactor="1.09" vaporized=""/>
    <tripinfo id="EW_32" depart="32.00" departLane="4i_0" departPos="10.10" departSpeed="0.00" departDelay="0.00" arrival="158.00" arrivalLane="1o_0" arrivalPos="492.80" arrivalSpeed="10.84" duration="126.00" routeLength="984.53" waitingTime="34.00" waitingCount="2" stopTime="0.00" timeLoss="55.73" rerouteNo="0" devices="tripinfo_EW_32" vType="truck" speedFactor="1.00" vaporized=""/>
    <tripinfo id="WE_72" depart="72.00" departLane="1i_0" departPos="10.10" departSpeed="0.00" departDelay="0.00" arrival="160.00" arrivalLane="2o_0" arrivalPos="492.80" arrivalSpeed="11.17" duration="88.00" routeLength="989.90" waitingTime="0.00" waitingCount="0" stopTime="0.00" timeLoss="18.23" rerouteNo="0" devices="tripinfo_WE_72" vType="truck" speedFactor="1.01" vaporized=""/>
    <tripinfo id="SN_2" depart="2.00" departLane="3i_0" departPos="4.10" departSpeed="0.00" departDelay="0.00" arrival="161.00" arrivalLane="4o_0" arrivalPos="492.80" arrivalSpeed="10.11" duration="159.00" routeLength="995.90" waitingTime="73.00" waitingCount="1" stopTime="0.00" timeLoss="82.73" rerouteNo="0" devices="tripinfo_SN_2" vType="car" speedFactor="0.94" vaporized=""/>
    <tripinfo id="WE_90" depart="90.00" departLane="1i_0" departPos="4.10" departSpeed="0.00" departDelay="0.00" arrival="164.00" arrivalLane="3o_0" arrivalPos="492.80" arrivalSpeed="11.58" duration="74.00" routeLength="990.53" waitingTime="0.00" waitingCount="0" stopTime="0.00" timeLoss="9.18" rerouteNo="0" devices="tripinfo_WE_90" vType="car" speedFactor="1.09" vaporized=""/>
    <tripinfo id="WE_78" depart="78.00" departLane="1i_0" departPos="4.10" departSpeed="0.00" departDelay="0.00" arrival="166.00" arrivalLane="2o_0" arrivalPos="492.80" arrivalSpeed="10.77" duration="88.00" routeLength="995.90" waitingTime="0.00" waitingCount="0" stopTime="0.00" timeLoss="15.13" rerouteNo="0" devices="tripinfo_WE_78" vType="car" speedFactor="0.97" vaporized=""/>
    <tripinfo id="NS_79" depart="79.00" departLane="2i_0" departPos="4.10" departSpeed="0.00" departDelay="0.00" arrival="166.00" arrivalLane="3o_0" arrivalPos="492.80" arrivalSpeed="12.54" duration="87.00" routeLength="995.70" waitingTime="8.00" waitingCount="1" stopTime="0.00" timeLoss="26.48" rerouteNo="0" devices="tripinfo_NS_79" vType="car" speedFactor="1.18" vaporized=""/>
    <tripinfo id="WE_85" depart="85.00" departLane="1i_0" departPos="4.10" departSpeed="0.00" departDelay="0.00" arrival="172.00" arrivalLane="2o_0" arrivalPos="492.80" arrivalSpeed="9.38" duration="87.00" routeLength="995.90" waitingTime="0.00" waitingCount="0" stopTime="0.00" timeLoss="8.50" rerouteNo="0" devices="tripinfo_WE_85" vType="car" speedFactor="0.90" vaporized=""/>
    <tripinfo id="NS_85" depart="85.00" departLane="2i_0" departPos="4.10" departSpeed="0.00" departDelay="0.00" arrival="172.00" arrivalLane="4o_0" arrivalPos="492.80" arrivalSpeed="11.07" duration="87.00" routeLength="990.53" waitingTime="4.00" waitingCount="1" stopTime="0.00" timeLoss="18.01" rerouteNo="0" devices="tripinfo_NS_85" vType="car" speedFactor="1.03" vaporized=""/>
    <tripinfo id="NS_90" depart="91.00" departLane="2i_0" departPos="4.10" departSpeed="0.00" departDelay="1.00" arrival="177.00" arrivalLane="4o_0" arrivalPos="492.80" arrivalSpeed="10.94" duration="86.00" routeLength="990.53" waitingTime="1.00" waitingCount="1" stopTime="0.00" timeLoss="17.46" rerouteNo="0" devices="tripinfo_NS_90" vType="car" speedFactor="1.04" vaporized=""/>
    <tripinfo id="SN_5" depart="5.00" departLane="3i_0" departPos="4.10" departSpeed="0.00" departDelay="0.00" arrival="179.00" arrivalLane="4o_0" arrivalPos="492.80" arrivalSpeed="11.33" duration="174.00" routeLength="995.90" waitingTime="90.00" waitingCount="3" stopTime="0.00" timeLoss="108.00" rerouteNo="0" devices="tripinfo_SN_5" vType="car" speedFactor="1.08" vaporized=""/>
    <tripinfo id="NS_87" depart="88.00" departLane="2i_0" departPos="4.10" departSpeed="0.00" departDelay="1.00" arrival="179.00" arrivalLane="3o_0" arrivalPos="492.80" arrivalSpeed="9.74" duration="91.00" routeLength="995.70" waitingTime="1.00" waitingCount="1" stopTime="0.00" timeLoss="16.34" rerouteNo="0" devices="tripinfo_NS_87" vType="car" speedFactor="0.96" vaporized=""/>
    <tripinfo id="EW_64" depart="64.00" departLane="4i_0" departPos="4.10" departSpeed="0.00" departDelay="0.00" arrival="180.00" arrivalLane="3o_0" arrivalPos="492.80" arrivalSpeed="11.58" duration="116.00" routeLength="995.90" waitingTime="26.00" waitingCount="3" stopTime="0.00" timeLoss="54.61" rerouteNo="0" devices="tripinfo_EW_64" vType="car" speedFactor="1.15" vaporized=""/>
    <tripinfo id="EW_34" depart="36.00" departLane="4i_0" departPos="4.10" departSpeed="0.00" departDelay="2.00" arrival="181.00" arrivalLane="2o_0" arrivalPos="492.80" arrivalSpeed="9.64" duration="145.00" routeLength="995.70" waitingTime="41.00" waitingCount="3" stopTime="0.00" timeLoss="64.18" rerouteNo="0" devices="tripinfo_EW_34" vType="car" speedFactor="0.88" vaporized=""/>
    <tripinfo id="NS_101" depart="101.00" departLane="2i_0" departPos="4.10" departSpeed="0.00" departDelay="0.00" arrival="186.00" arrivalLane="3o_0" arrivalPos="492.80" arrivalSpeed="10.00" duration="85.00" routeLength="995.70" waitingTime="0.00" waitingCount="0" stopTime="0.00" timeLoss="13.95" rerouteNo="0" devices="tripinfo_NS_101" vType="car" speedFactor="1.00" vaporized=""/>
    <tripinfo id="WE_113" depart="115.00" departLane="1i_0" departPos="4.10" departSpeed="0.00" departDelay="2.00" arrival="187.00" arrivalLane="2o_0" arrivalPos="492.80" arrivalSpeed="11.43" duration="72.00" routeLength="995.90" waitingTime="0.00" waitingCount="0" stopTime="0.00" timeLoss="7.27" rerouteNo="0" devices="tripinfo_WE_113" vType="car" speedFactor="1.10" vaporized=""/>
    <tripinfo id="NS_106" depart="106.00" departLane="2i_0" departPos="4.10" departSpeed="0.00" departDelay="0.00" arrival="198.00" arrivalLane="4o_0" arrivalPos="492.80" arrivalSpeed="9.01" duration="92.00" routeLength="990.53" waitingTime="0.00" waitingCount="0" stopTime="0.00" timeLoss="8.72" rerouteNo="0" devices="tripinfo_NS_106" vType="car" speedFactor="0.85" vaporized=""/>
    <tripinfo id="EW_70" depart="70.00" departLane="4i_0" departPos="4.10" departSpeed="0.00" departDelay="0.00" arrival="201.00" arrivalLane="3o_0" arrivalPos="492.80" arrivalSpeed="10.45" duration="131.00" routeLength="995.90" waitingTime="29.00" waitingCount="4" stopTime="0.00" timeLoss="59.56" rerouteNo="0" devices="tripinfo_EW_70" vType="car" speedFactor="0.99" vaporized=""/>
    <tripinfo id="SN_17" depart="17.00" departLane="3i_0" departPos="4.10" departSpeed="0.00" departDelay="0.00" arrival="202.00" arrivalLane="1o_0" arrivalPos="492.80" arrivalSpeed="11.38" duration="185.00" routeLength="995.70" waitingTime="92.00" waitingCount="5" stopTime="0.00" timeLoss="117.10" rerouteNo="0" devices="tripinfo_SN_17" vType="car" speedFactor="1.05" vaporized=""/>
    <tripinfo id="NS_108" depart="111.00" departLane="2i_0" departPos="4.10" departSpeed="0.00" departDelay="3.00" arrival="203.00" arrivalLane="4o_0" arrivalPos="492.80" arrivalSpeed="9.43" duration="92.00" routeLength="990.53" waitingTime="0.00" waitingCount="0" stopTime="0.00" timeLoss="9.04" rerouteNo="0" devices="tripinfo_NS_108" vType="car" speedFactor="0.85" vaporized=""/>
    <tripinfo id="NS_111" depart="114.00" departLane="2i_0" departPos="4.10" departSpeed="0.00" departDelay="3.00" arrival="204.00" arrivalLane="4o_0" arrivalPos="492.80" arrivalSpeed="9.76" duration="90.00" routeLength="990.53" waitingTime="0.00" waitingCount="0" stopTime="0.00" timeLoss="20.99" rerouteNo="0" devices="tripinfo_NS_111" vType="car" speedFactor="1.02" vaporized=""/>
    <tripinfo id="NS_129" depart="129.00" departLane="2i_0" departPos="4.10" departSpeed="0.00" departDelay="0.00" arrival="204.00" arrivalLane="1o_0" arrivalPos="492.80" arrivalSpeed="11.29" duration="75.00" routeLength="995.90" waitingTime="0.00" waitingCount="0" stopTime="0.00" timeLoss="9.14" rerouteNo="0" devices="tripinfo_NS_129" vType="car" speedFactor="1.08" vaporized=""/>
    <tripinfo id="NS_113" depart="117.00" departLane="2i_0" departPos="4.10" departSpeed="0.00" departDelay="4.00" arrival="206.00" arrivalLane="4o_0" arrivalPos="492.80" arrivalSpeed="10.00" duration="89.00" routeLength="990.53" waitingTime="0.00" waitingCount="0" stopTime="0.00" timeLoss="18.84" rerouteNo="0" devices="tripinfo_NS_113" vType="car" speedFactor="1.00" vaporized=""/>
    <tripinfo id="NS_130" depart="131.00" departLane="2i_0" departPos="4.10" departSpeed="0.00" departDelay="1.00" arrival="208.00" arrivalLane="4o_0" arrivalPos="492.80" arrivalSpeed="11.96" duration="77.00" routeLength="990.53" waitingTime="0.00" waitingCount="0" stopTime="0.00" timeLoss="13.60" rerouteNo="0" devices="tripinfo_NS_130" vType="car" speedFactor="1.12" vaporized=""/>
    <tripinfo id="WE_131" depart="131.00" departLane="1i_0" departPos="4.10" departSpeed="0.00" departDelay="0.00" arrival="211.00" arrivalLane="4o_0" arrivalPos="492.80" arrivalSpeed="11.05" duration="80.00" routeLength="995.70" waitingTime="0.00" waitingCount="0" stopTime="0.00" timeLoss="9.67" rerouteNo="0" devices="tripinfo_WE_131" vType="car" speedFactor="1.02" vaporized=""/>
    <tripinfo id="NS_133" depart="135.00" departLane="2i_0" departPos="4.10" departSpeed="0.00" departDelay="2.00" arrival="214.00" arrivalLane="1o_0" arrivalPos="492.80" arrivalSpeed="10.31" duration="79.00" routeLength="995.90" waitingTime="0.00" waitingCount="0" stopTime="0.00" timeLoss="7.33" rerouteNo="0" devices="tripinfo_NS_133" vType="car" speedFactor="0.99" vaporized=""/>
    <tripinfo id="NS_142" depart="142.00" departLane="2i_0" departPos="4.10" departSpeed="0.00" departDelay="0.00" arrival="229.00" arrivalLane="4o_0" arrivalPos="492.80" arrivalSpeed="9.64" duration="87.00" routeLength="990.53" waitingTime="0.00" waitingCount="0" stopTime="0.00" timeLoss="9.03" rerouteNo="0" devices="tripinfo_NS_142" vType="car" speedFactor="0.91" vaporized=""/>
    <tripinfo id="WE_142" depart="142.00" departLane="1i_0" departPos="4.10" departSpeed="0.00" departDelay="0.00" arrival="232.00" arrivalLane="4o_0" arrivalPos="492.80" arrivalSpeed="9.67" duration="90.00" routeLength="995.70" waitingTime="0.00" waitingCount="0" stopTime="0.00" timeLoss="9.66" rerouteNo="0" devices="tripinfo_WE_142" vType="car" speedFactor="0.88" vaporized=""/>
    <tripinfo id="NS_152" depart="154.00" departLane="2i_0" departPos="4.10" departSpeed="0.00" departDelay="2.00" arrival="233.00" arrivalLane="3o_0" arrivalPos="492.80" arrivalSpeed="10.21" duration="79.00" routeLength="995.70" waitingTime="0.00" waitingCount="0" stopTime="0.00" timeLoss="9.66" rerouteNo="0" devices="tripinfo_NS_152" vType="car" speedFactor="1.02" vaporized=""/>
    <tripinfo id="NS_151" depart="151.00" departLane="2i_0" departPos="4.10" departSpeed="0.00" departDelay="0.00" arrival="234.00" arrivalLane="4o_0" arrivalPos="492.80" arrivalSpeed="10.44" duration="83.00" routeLength="990.53" waitingTime="0.00" waitingCount="0" stopTime="0.00" timeLoss="13.88" rerouteNo="0" devices="tripinfo_NS_151" vType="car" speedFactor="1.02" vaporized=""/>
    <tripinfo id="WE_148" depart="149.00" departLane="1i_0" departPos="4.10" departSpeed="0.00" departDelay="1.00" arrival="239.00" arrivalLane="4o_0" arrivalPos="492.80" arrivalSpeed="10.55" duration="90.00" routeLength="995.70" waitingTime="9.00" waitingCount="1" stopTime="0.00" timeLoss="21.97" rerouteNo="0" devices="tripinfo_WE_148" vType="car" speedFactor="1.04" vaporized=""/>
    <tripinfo id="NS_155" depart="157.00" departLane="2i_0" departPos="4.10" departSpeed="0.00" departDelay="2.00" arrival="239.00" arrivalLane="3o_0" arrivalPos="492.80" arrivalSpeed="10.00" duration="82.00" routeLength="995.70" waitingTime="0.00" waitingCount="0" stopTime="0.00" timeLoss="9.37" rerouteNo="0" devices="tripinfo_NS_155" vType="car" speedFactor="0.97" vaporized=""/>
    <tripinfo id="WE_163" depart="163.00" departLane="1i_0" departPos="10.10" departSpeed="0.00" departDelay="0.00" arrival="244.00" arrivalLane="2o_0" arrivalPos="492.80" arrivalSpeed="11.09" duration="81.00" routeLength="989.90" waitingTime="0.00" waitingCount="0" stopTime="0.00" timeLoss="12.20" rerouteNo="0" devices="tripinfo_WE_163" vType="truck" speedFactor="1.03" vaporized=""/>
    <tripinfo id="WE_159" depart="159.00" departLane="1i_0" departPos="4.10" departSpeed="0.00" departDelay="0.00" arrival="245.00" arrivalLane="4o_0" arrivalPos="492.80" arrivalSpeed="9.88" duration="86.00" routeLength="995.70" waitingTime="0.00" waitingCount="0" stopTime="0.00" timeLoss="10.85" rerouteNo="0" devices="tripinfo_WE_159" vType="car" speedFactor="0.94" vaporized=""/>
    <tripinfo id="WE_166" depart="167.00" departLane="1i_0" departPos="4.10" departSpeed="0.00" departDelay="1.00" arrival="252.00" arrivalLane="2o_0" arrivalPos="492.80" arrivalSpeed="9.34" duration="85.00" routeLength="995.90" waitingTime="0.00" waitingCount="0" stopTime="0.00" timeLoss="11.01" rerouteNo="0" devices="tripinfo_WE_166" vType="car" speedFactor="0.96" vaporized=""/>
    <tripinfo id="NS_168" depart="168.00" departLane="2i_0" departPos="4.10" departSpeed="0.00" departDelay="0.00" arrival="254.00" arrivalLane="3o_0" arrivalPos="492.80" arrivalSpeed="9.94" duration="86.00" routeLength="995.70" waitingTime="0.00" waitingCount="0" stopTime="0.00" timeLoss="13.64" rerouteNo="0" devices="tripinfo_NS_168" vType="car" speedFactor="0.98" vaporized=""/>
    <tripinfo id="WE_180" depart="180.00" departLane="1i_0" departPos="4.10" departSpeed="0.00" departDelay="0.00" arrival="260.00" arrivalLane="4o_0" arrivalPos="492.80" arrivalSpeed="11.26" duration="80.00" routeLength="995.70" waitingTime="0.00" waitingCount="0" stopTime="0.00" timeLoss="10.81" rerouteNo="0" devices="tripinfo_WE_180" vType="car" speedFactor="1.03" vaporized=""/>
    <tripinfo id="EW_83" depart="83.00" departLane="4i_0" departPos="4.10" departSpeed="0.00" departDelay="0.00" arrival="261.00" arrivalLane="3o_0" arrivalPos="492.80" arrivalSpeed="11.26" duration="178.00" routeLength="995.90" waitingTime="84.00" waitingCount="4" stopTime="0.00" timeLoss="114.00" rerouteNo="0" devices="tripinfo_EW_83" vType="car" speedFactor="1.10" vaporized=""/>
    <tripinfo id="NS_186" depart="187.00" departLane="2i_0" departPos="4.10" departSpeed="0.00" departDelay="1.00" arrival="261.00" arrivalLane="4o_0" arrivalPos="492.80" arrivalSpeed="11.88" duration="74.00" routeLength="990.53" waitingTime="0.00" waitingCount="0" stopTime="0.00" timeLoss="9.26" rerouteNo="0" devices="tripinfo_NS_186" vType="car" speedFactor="1.09" vaporized=""/>
    <tripinfo id="SN_26" depart="26.00" departLane="3i_0" departPos="4.10" departSpeed="0.00" departDelay="0.00" arrival="268.00" arrivalLane="1o_0" arrivalPos="492.80" arrivalSpeed="11.40" duration="242.00" routeLength="995.70" waitingTime="141.00" waitingCount="7" stopTime="0.00" timeLoss="172.96" rerouteNo="0" devices="tripinfo_SN_26" vType="car" speedFactor="1.03" vaporized=""/>
    <tripinfo id="NS_192" depart="192.00" departLane="2i_0" departPos="4.10" departSpeed="0.00" departDelay="0.00" arrival="270.00" arrivalLane="4o_0" arrivalPos="492.80" arrivalSpeed="10.60" duration="78.00" routeLength="990.53" waitingTime="0.00" waitingCount="0" stopTime="0.00" timeLoss="8.03" rerouteNo="0" devices="tripinfo_NS_192" vType="car" speedFactor="1.02" vaporized=""/>
    <tripinfo id="EW_97" depart="97.00" departLane="4i_0" departPos="4.10" departSpeed="0.00" departDelay="0.00" arrival="276.00" arrivalLane="3o_0" arrivalPos="492.80" arrivalSpeed="10.54" duration="179.00" routeLength="995.90" waitingTime="78.00" waitingCount="4" stopTime="0.00" timeLoss="110.51" rerouteNo="0" devices="tripinfo_EW_97" vType="car" speedFactor="1.04" vaporized=""/>
    <tripinfo id="SN_33" depart="33.00" departLane="3i_0" departPos="4.10" departSpeed="0.00" departDelay="0.00" arrival="280.00" arrivalLane="2o_0" arrivalPos="492.80" arrivalSpeed="9.62" duration="247.00" routeLength="990.53" waitingTime="133.00" waitingCount="7" stopTime="0.00" timeLoss="171.14" rerouteNo="0" devices="tripinfo_SN_33" vType="car" speedFactor="0.93" vaporized=""/>
    <tripinfo id="WE_198" depart="198.00" departLane="1i_0" departPos="4.10" departSpeed="0.00" departDelay="0.00" arrival="282.00" arrivalLane="2o_0" arrivalPos="492.80" arrivalSpeed="11.98" duration="84.00" routeLength="995.90" waitingTime="2.00" waitingCount="1" stopTime="0.00" timeLoss="21.51" rerouteNo="0" devices="tripinfo_WE_198" vType="car" speedFactor="1.15" vaporized=""/>
    <tripinfo id="SN_37" depart="39.00" departLane="3i_0" departPos="4.10" departSpeed="0.00" departDelay="2.00" arrival="285.00" arrivalLane="4o_0" arrivalPos="492.80" arrivalSpeed="12.70" duration="246.00" routeLength="995.90" waitingTime="121.00" waitingCount="7" stopTime="0.00" timeLoss="184.32" rerouteNo="0" devices="tripinfo_SN_37" vType="car" speedFactor="1.16" vaporized=""/>
    <tripinfo id="SN_34" depart="36.00" departLane="3i_0" departPos="4.10" departSpeed="0.00" departDelay="2.00" arrival="287.00" arrivalLane="1o_0" arrivalPos="492.80" arrivalSpeed="10.31" duration="251.00" routeLength="995.70" waitingTime="124.00" waitingCount="7" stopTime="0.00" timeLoss="175.25" rerouteNo="0" devices="tripinfo_SN_34" vType="car" speedFactor="0.94" vaporized=""/>
    <tripinfo id="EW_117" depart="117.00" departLane="4i_0" departPos="4.10" departSpeed="0.00" departDelay="0.00" arrival="288.00" arrivalLane="2o_0" arrivalPos="492.80" arrivalSpeed="9.85" duration="171.00" routeLength="995.70" waitingTime="66.00" waitingCount="3" stopTime="0.00" timeLoss="92.34" rerouteNo="0" devices="tripinfo_EW_117" vType="car" speedFactor="0.90" vaporized=""/>
    <tripinfo id="NS_198" depart="198.00" departLane="2i_0" departPos="4.10" departSpeed="0.00" departDelay="0.00" arrival="290.00" arrivalLane="3o_0" arrivalPos="492.80" arrivalSpeed="10.75" duration="92.00" routeLength="995.70" waitingTime="5.00" waitingCount="1" stopTime="0.00" timeLoss="19.09" rerouteNo="0" devices="tripinfo_NS_198" vType="car" speedFactor="0.98" vaporized=""/>
    <tripinfo id="NS_207" depart="207.00" departLane="2i_0" departPos="4.10" departSpeed="0.00" departDelay="0.00" arrival="294.00" arrivalLane="1o_0" arrivalPos="492.80" arrivalSpeed="10.35" duration="87.00" routeLength="995.90" waitingTime="2.00" waitingCount="2" stopTime="0.00" timeLoss="17.10" rerouteNo="0" devices="tripinfo_NS_207" vType="car" speedFactor="1.02" vaporized=""/>
    <tripinfo id="EW_121" depart="121.00" departLane="4i_0" departPos="4.10" departSpeed="0.00" departDelay="0.00" arrival="297.00" arrivalLane="2o_0" arrivalPos="492.80" arrivalSpeed="10.42" duration="176.00" routeLength="995.70" waitingTime="74.00" waitingCount="4" stopTime="0.00" timeLoss="106.47" rerouteNo="0" devices="tripinfo_EW_121" vType="car" speedFactor="1.02" vaporized=""/>
    <tripinfo id="SN_38" depart="42.00" departLane="3i_0" departPos="4.10" departSpeed="0.00" departDelay="4.00" arrival="298.00" arrivalLane="1o_0" arrivalPos="492.80" arrivalSpeed="10.49" duration="256.00" routeLength="995.70" waitingTime="118.00" waitingCount="7" stopTime="0.00" timeLoss="186.09" rerouteNo="0" devices="tripinfo_SN_38" vType="car" speedFactor="1.02" vaporized=""/>
    <tripinfo id="NS_212" depart="212.00" departLane="2i_0" departPos="4.10" departSpeed="0.00" departDelay="0.00" arrival="305.00" arrivalLane="3o_0" arrivalPos="492.80" arrivalSpeed="10.49" duration="93.00" routeLength="995.70" waitingTime="6.00" waitingCount="2" stopTime="0.00" timeLoss="22.98" rerouteNo="0" devices="tripinfo_NS_212" vType="car" speedFactor="1.02" vaporized=""/>
    <tripinfo id="WE_203" depart="204.00" departLane="1i_0" departPos="10.10" departSpeed="0.00" departDelay="1.00" arrival="307.00" arrivalLane="4o_0" arrivalPos="492.80" arrivalSpeed="10.58" duration="103.00" routeLength="989.70" waitingTime="9.00" waitingCount="1" stopTime="0.00" timeLoss="32.35" rerouteNo="0" devices="tripinfo_WE_203" vType="truck" speedFactor="1.00" vaporized=""/>
    <tripinfo id="NS_225" depart="225.00" departLane="2i_0" departPos="4.10" departSpeed="0.00" departDelay="0.00" arrival="311.00" arrivalLane="4o_0" arrivalPos="492.80" arrivalSpeed="11.00" duration="86.00" routeLength="990.53" waitingTime="1.00" waitingCount="1" stopTime="0.00" timeLoss="19.09" rerouteNo="0" devices="tripinfo_NS_225" vType="car" speedFactor="1.06" vaporized=""/>
    <tripinfo id="EW_137" depart="137.00" departLane="4i_0" departPos="4.10" departSpeed="0.00" departDelay="0.00" arrival="316.00" arrivalLane="2o_0" arrivalPos="492.80" arrivalSpeed="9.54" duration="179.00" routeLength="995.70" waitingTime="72.00" waitingCount="7" stopTime="0.00" timeLoss="102.86" rerouteNo="0" devices="tripinfo_EW_137" vType="car" speedFactor="0.94" vaporized=""/>
    <tripinfo id="WE_219" depart="219.00" departLane="1i_0" departPos="4.10" departSpeed="0.00" departDelay="0.00" arrival="319.00" arrivalLane="3o_0" arrivalPos="492.80" arrivalSpeed="8.24" duration="100.00" routeLength="990.53" waitingTime="0.00" waitingCount="0" stopTime="0.00" timeLoss="15.18" rerouteNo="0" devices="tripinfo_WE_219" vType="car" speedFactor="0.83" vaporized=""/>
    <tripinfo id="NS_222" depart="222.00" departLane="2i_0" departPos="4.10" departSpeed="0.00" departDelay="0.00" arrival="321.00" arrivalLane="3o_0" arrivalPos="492.80" arrivalSpeed="10.12" duration="99.00" routeLength="995.70" waitingTime="2.00" waitingCount="1" stopTime="0.00" timeLoss="21.66" rerouteNo="0" devices="tripinfo_NS_222" vType="car" speedFactor="0.92" vaporized=""/>