<?xml version="1.0" encoding="UTF-8"?>

<!-- generated on 2024-05-05 17:41:49 by Eclipse SUMO sumo Version 1.19.0
<configuration xmlns:xsi="http://www.w3.org/2001/XMLSchema-instance" xsi:noNamespaceSchemaLocation="http://sumo.dlr.de/xsd/sumoConfiguration.xsd">

    <input>
        <net-file value="twoone.net.xml"/>
        <route-files value="route_gen.rou.xml"/>
    </input>

    <output>
        <tripinfo-output value="tripinfo_epi346.xml"/>
    </output>

    <report>
        <no-warnings value="true"/>
    </report>

    <traci_server>
        <remote-port value="35039"/>
    </traci_server>

</configuration>
-->

<tripinfos xmlns:xsi="http://www.w3.org/2001/XMLSchema-instance" xsi:noNamespaceSchemaLocation="http://sumo.dlr.de/xsd/tripinfo_file.xsd">
    <tripinfo id="WE_0" depart="0.00" departLane="1i_0" departPos="4.10" departSpeed="0.00" departDelay="0.00" arrival="75.00" arrivalLane="3o_0" arrivalPos="492.80" arrivalSpeed="11.77" duration="75.00" routeLength="990.53" waitingTime="0.00" waitingCount="0" stopTime="0.00" timeLoss="7.63" rerouteNo="0" devices="tripinfo_WE_0" vType="car" speedFactor="1.06" vaporized=""/>
    <tripinfo id="NS_11" depart="11.00" departLane="2i_0" departPos="4.10" departSpeed="0.00" departDelay="0.00" arrival="85.00" arrivalLane="1o_0" arrivalPos="492.80" arrivalSpeed="11.41" duration="74.00" routeLength="995.90" waitingTime="0.00" waitingCount="0" stopTime="0.00" timeLoss="7.97" rerouteNo="0" devices="tripinfo_NS_11" vType="car" speedFactor="1.08" vaporized=""/>
    <tripinfo id="NS_13" depart="14.00" departLane="2i_0" departPos="4.10" departSpeed="0.00" departDelay="1.00" arrival="91.00" arrivalLane="4o_0" arrivalPos="492.80" arrivalSpeed="10.93" duration="77.00" routeLength="990.53" waitingTime="0.00" waitingCount="0" stopTime="0.00" timeLoss="8.31" rerouteNo="0" devices="tripinfo_NS_13" vType="car" speedFactor="1.03" vaporized=""/>
    <tripinfo id="NS_18" depart="18.00" departLane="2i_0" departPos="4.10" departSpeed="0.00" departDelay="0.00" arrival="96.00" arrivalLane="3o_0" arrivalPos="492.80" arrivalSpeed="10.50" duration="78.00" routeLength="995.70" waitingTime="0.00" waitingCount="0" stopTime="0.00" timeLoss="9.84" rerouteNo="0" devices="tripinfo_NS_18" vType="car" speedFactor="1.05" vaporized=""/>
    <tripinfo id="SN_7" depart="7.00" departLane="3i_0" departPos="4.10" departSpeed="0.00" departDelay="0.00" arrival="97.00" arrivalLane="2o_0" arrivalPos="492.80" arrivalSpeed="9.61" duration="90.00" routeLength="990.53" waitingTime="6.00" waitingCount="1" stopTime="0.00" timeLoss="14.96" rerouteNo="0" devices="tripinfo_SN_7" vType="car" speedFactor="0.94" vaporized=""/>
    <tripinfo id="WE_8" depart="8.00" departLane="1i_0" departPos="4.10" departSpeed="0.00" departDelay="0.00" arrival="100.00" arrivalLane="4o_0" arrivalPos="492.80" arrivalSpeed="10.33" duration="92.00" routeLength="995.70" waitingTime="9.00" waitingCount="1" stopTime="0.00" timeLoss="22.09" rerouteNo="0" devices="tripinfo_WE_8" vType="car" speedFactor="1.01" vaporized=""/>
    <tripinfo id="NS_29" depart="29.00" departLane="2i_0" departPos="4.10" departSpeed="0.00" departDelay="0.00" arrival="107.00" arrivalLane="1o_0" arrivalPos="492.80" arrivalSpeed="11.18" duration="78.00" routeLength="995.90" waitingTime="0.00" waitingCount="0" stopTime="0.00" timeLoss="8.64" rerouteNo="0" devices="tripinfo_NS_29" vType="car" speedFactor="1.03" vaporized=""/>
    <tripinfo id="NS_24" depart="24.00" departLane="2i_0" departPos="4.10" departSpeed="0.00" departDelay="0.00" arrival="110.00" arrivalLane="3o_0" arrivalPos="492.80" arrivalSpeed="9.41" duration="86.00" routeLength="995.70" waitingTime="0.00" waitingCount="0" stopTime="0.00" timeLoss="9.99" rerouteNo="0" devices="tripinfo_NS_24" vType="car" speedFactor="0.94" vaporized=""/>
    <tripinfo id="NS_31" depart="32.00" departLane="2i_0" departPos="4.10" departSpeed="0.00" departDelay="1.00" arrival="111.00" arrivalLane="3o_0" arrivalPos="492.80" arrivalSpeed="10.94" duration="79.00" routeLength="995.70" waitingTime="0.00" waitingCount="0" stopTime="0.00" timeLoss="11.51" rerouteNo="0" devices="tripinfo_NS_31" vType="car" speedFactor="1.05" vaporized=""/>
    <tripinfo id="NS_32" depart="34.00" departLane="2i_0" departPos="4.10" departSpeed="0.00" departDelay="2.00" arrival="112.00" arrivalLane="4o_0" arrivalPos="492.80" arrivalSpeed="11.25" duration="78.00" routeLength="990.53" waitingTime="1.00" waitingCount="1" stopTime="0.00" timeLoss="14.58" rerouteNo="0" devices="tripinfo_NS_32" vType="car" speedFactor="1.12" vaporized=""/>
    <tripinfo id="EW_25" depart="25.00" departLane="4i_0" departPos="10.10" departSpeed="0.00" departDelay="0.00" arrival="116.00" arrivalLane="2o_0" arrivalPos="492.80" arrivalSpeed="11.22" duration="91.00" routeLength="989.70" waitingTime="0.00" waitingCount="0" stopTime="0.00" timeLoss="23.34" rerouteNo="0" devices="tripinfo_EW_25" vType="truck" speedFactor="1.05" vaporized=""/>
    <tripinfo id="EW_17" depart="17.00" departLane="4i_0" departPos="4.10" departSpeed="0.00" departDelay="0.00" arrival="121.00" arrivalLane="1o_0" arrivalPos="492.80" arrivalSpeed="8.18" duration="104.00" routeLength="990.53" waitingTime="6.00" waitingCount="1" stopTime="0.00" timeLoss="18.94" rerouteNo="0" devices="tripinfo_EW_17" vType="car" speedFactor="0.83" vaporized=""/>
    <tripinfo id="SN_20" depart="20.00" departLane="3i_0" departPos="4.10" departSpeed="0.00" departDelay="0.00" arrival="124.00" arrivalLane="1o_0" arrivalPos="492.80" arrivalSpeed="9.14" duration="104.00" routeLength="995.70" waitingTime="7.00" waitingCount="2" stopTime="0.00" timeLoss="23.89" rerouteNo="0" devices="tripinfo_SN_20" vType="car" speedFactor="0.89" vaporized=""/>
    <tripinfo id="EW_34" depart="34.00" departLane="4i_0" departPos="4.10" departSpeed="0.00" departDelay="0.00" arrival="127.00" arrivalLane="1o_0" arrivalPos="492.80" arrivalSpeed="9.13" duration="93.00" routeLength="990.53" waitingTime="0.00" waitingCount="0" stopTime="0.00" timeLoss="12.33" rerouteNo="0" devices="tripinfo_EW_34" vType="car" speedFactor="0.88" vaporized=""/>
    <tripinfo id="WE_34" depart="34.00" departLane="1i_0" departPos="4.10" departSpeed="0.00" departDelay="0.00" arrival="128.00" arrivalLane="2o_0" arrivalPos="492.80" arrivalSpeed="9.75" duration="94.00" routeLength="995.90" waitingTime="4.00" waitingCount="1" stopTime="0.00" timeLoss="17.36" rerouteNo="0" devices="tripinfo_WE_34" vType="car" speedFactor="0.93" vaporized=""/>
    <tripinfo id="EW_47" depart="47.00" departLane="4i_0" departPos="4.10" departSpeed="0.00" departDelay="0.00" arrival="128.00" arrivalLane="1o_0" arrivalPos="492.80" arrivalSpeed="10.71" duration="81.00" routeLength="990.53" waitingTime="0.00" waitingCount="0" stopTime="0.00" timeLoss="11.66" rerouteNo="0" devices="tripinfo_EW_47" vType="car" speedFactor="1.02" vaporized=""/>
    <tripinfo id="SN_24" depart="24.00" departLane="3i_0" departPos="4.10" departSpeed="0.00" departDelay="0.00" arrival="130.00" arrivalLane="4o_0" arrivalPos="492.80" arrivalSpeed="9.43" duration="106.00" routeLength="995.90" waitingTime="3.00" waitingCount="1" stopTime="0.00" timeLoss="23.13" rerouteNo="0" devices="tripinfo_SN_24" vType="car" speedFactor="0.86" vaporized=""/>
    <tripinfo id="SN_32" depart="32.00" departLane="3i_0" departPos="4.10" departSpeed="0.00" departDelay="0.00" arrival="132.00" arrivalLane="1o_0" arrivalPos="492.80" arrivalSpeed="10.73" duration="100.00" routeLength="995.70" waitingTime="4.00" waitingCount="2" stopTime="0.00" timeLoss="28.87" rerouteNo="0" devices="tripinfo_SN_32" vType="car" speedFactor="0.99" vaporized=""/>
    <tripinfo id="NS_44" depart="44.00" departLane="2i_0" departPos="4.10" departSpeed="0.00" departDelay="0.00" arrival="132.00" arrivalLane="4o_0" arrivalPos="492.80" arrivalSpeed="12.36" duration="88.00" routeLength="990.53" waitingTime="0.00" waitingCount="0" stopTime="0.00" timeLoss="26.53" rerouteNo="0" devices="tripinfo_NS_44" vType="car" speedFactor="1.16" vaporized=""/>
    <tripinfo id="NS_50" depart="50.00" departLane="2i_0" departPos="4.10" departSpeed="0.00" departDelay="0.00" arrival="134.00" arrivalLane="1o_0" arrivalPos="492.80" arrivalSpeed="10.52" duration="84.00" routeLength="995.90" waitingTime="0.00" waitingCount="0" stopTime="0.00" timeLoss="14.08" rerouteNo="0" devices="tripinfo_NS_50" vType="car" speedFactor="1.01" vaporized=""/>
    <tripinfo id="NS_52" depart="53.00" departLane="2i_0" departPos="4.10" departSpeed="0.00" departDelay="1.00" arrival="141.00" arrivalLane="1o_0" arrivalPos="492.80" arrivalSpeed="9.56" duration="88.00" routeLength="995.90" waitingTime="0.00" waitingCount="0" stopTime="0.00" timeLoss="8.53" rerouteNo="0" devices="tripinfo_NS_52" vType="car" speedFactor="0.89" vaporized=""/>
    <tripinfo id="NS_73" depart="73.00" departLane="2i_0" departPos="4.10" departSpeed="0.00" departDelay="0.00" arrival="158.00" arrivalLane="4o_0" arrivalPos="492.80" arrivalSpeed="10.32" duration="85.00" routeLength="990.53" waitingTime="0.00" waitingCount="0" stopTime="0.00" timeLoss="8.80" rerouteNo="0" devices="tripinfo_NS_73" vType="car" speedFactor="0.93" vaporized=""/>
    <tripinfo id="NS_79" depart="79.00" departLane="2i_0" departPos="4.10" departSpeed="0.00" departDelay="0.00" arrival="159.00" arrivalLane="4o_0" arrivalPos="492.80" arrivalSpeed="11.13" duration="80.00" routeLength="990.53" waitingTime="0.00" waitingCount="0" stopTime="0.00" timeLoss="19.13" rerouteNo="0" devices="tripinfo_NS_79" vType="car" speedFactor="1.15" vaporized=""/>
    <tripinfo id="WE_52" depart="52.00" departLane="1i_0" departPos="4.10" departSpeed="0.00" departDelay="0.00" arrival="161.00" arrivalLane="4o_0" arrivalPos="492.80" arrivalSpeed="10.00" duration="109.00" routeLength="995.70" waitingTime="22.00" waitingCount="1" stopTime="0.00" timeLoss="36.64" rerouteNo="0" devices="tripinfo_WE_52" vType="car" speedFactor="0.97" vaporized=""/>
    <tripinfo id="NS_81" depart="81.00" departLane="2i_0" departPos="4.10" departSpeed="0.00" departDelay="0.00" arrival="163.00" arrivalLane="1o_0" arrivalPos="492.80" arrivalSpeed="10.36" duration="82.00" routeLength="995.90" waitingTime="0.00" waitingCount="0" stopTime="0.00" timeLoss="11.82" rerouteNo="0" devices="tripinfo_NS_81" vType="car" speedFactor="1.01" vaporized=""/>
    <tripinfo id="WE_88" depart="88.00" departLane="1i_0" departPos="4.10" departSpeed="0.00" departDelay="0.00" arrival="169.00" arrivalLane="2o_0" arrivalPos="492.80" arrivalSpeed="10.51" duration="81.00" routeLength="995.90" waitingTime="0.00" waitingCount="0" stopTime="0.00" timeLoss="7.61" rerouteNo="0" devices="tripinfo_WE_88" vType="car" speedFactor="0.97" vaporized=""/>
    <tripinfo id="EW_57" depart="57.00" departLane="4i_0" departPos="4.10" departSpeed="0.00" departDelay="0.00" arrival="170.00" arrivalLane="3o_0" arrivalPos="492.80" arrivalSpeed="8.98" duration="113.00" routeLength="995.90" waitingTime="17.00" waitingCount="2" stopTime="0.00" timeLoss="31.45" rerouteNo="0" devices="tripinfo_EW_57" vType="car" speedFactor="0.87" vaporized=""/>
    <tripinfo id="NS_87" depart="87.00" departLane="2i_0" departPos="4.10" departSpeed="0.00" departDelay="0.00" arrival="171.00" arrivalLane="3o_0" arrivalPos="492.80" arrivalSpeed="11.18" duration="84.00" routeLength="995.70" waitingTime="0.00" waitingCount="0" stopTime="0.00" timeLoss="14.74" rerouteNo="0" devices="tripinfo_NS_87" vType="car" speedFactor="1.02" vaporized=""/>
    <tripinfo id="EW_65" depart="65.00" departLane="4i_0" departPos="4.10" departSpeed="0.00" departDelay="0.00" arrival="178.00" arrivalLane="1o_0" arrivalPos="492.80" arrivalSpeed="9.46" duration="113.00" routeLength="990.53" waitingTime="20.00" waitingCount="2" stopTime="0.00" timeLoss="38.77" rerouteNo="0" devices="tripinfo_EW_65" vType="car" speedFactor="0.95" vaporized=""/>
    <tripinfo id="SN_34" depart="35.00" departLane="3i_0" departPos="4.10" departSpeed="0.00" departDelay="1.00" arrival="179.00" arrivalLane="4o_0" arrivalPos="492.80" arrivalSpeed="10.01" duration="144.00" routeLength="995.90" waitingTime="42.00" waitingCount="3" stopTime="0.00" timeLoss="68.99" rerouteNo="0" devices="tripinfo_SN_34" vType="car" speedFactor="0.94" vaporized=""/>
    <tripinfo id="WE_107" depart="107.00" departLane="1i_0" departPos="4.10" departSpeed="0.00" departDelay="0.00" arrival="184.00" arrivalLane="3o_0" arrivalPos="492.80" arrivalSpeed="10.44" duration="77.00" routeLength="990.53" waitingTime="0.00" waitingCount="0" stopTime="0.00" timeLoss="8.52" rerouteNo="0" devices="tripinfo_WE_107" vType="car" speedFactor="1.03" vaporized=""/>
    <tripinfo id="NS_112" depart="112.00" departLane="2i_0" departPos="4.10" departSpeed="0.00" departDelay="0.00" arrival="185.00" arrivalLane="1o_0" arrivalPos="492.80" arrivalSpeed="10.92" duration="73.00" routeLength="995.90" waitingTime="0.00" waitingCount="0" stopTime="0.00" timeLoss="8.38" rerouteNo="0" devices="tripinfo_NS_112" vType="car" speedFactor="1.09" vaporized=""/>
    <tripinfo id="NS_115" depart="116.00" departLane="2i_0" departPos="4.10" departSpeed="0.00" departDelay="1.00" arrival="193.00" arrivalLane="1o_0" arrivalPos="492.80" arrivalSpeed="11.21" duration="77.00" routeLength="995.90" waitingTime="0.00" waitingCount="0" stopTime="0.00" timeLoss="8.33" rerouteNo="0" devices="tripinfo_NS_115" vType="car" speedFactor="1.04" vaporized=""/>
    <tripinfo id="NS_130" depart="130.00" departLane="2i_0" departPos="4.10" departSpeed="0.00" departDelay="0.00" arrival="208.00" arrivalLane="3o_0" arrivalPos="492.80" arrivalSpeed="11.24" duration="78.00" routeLength="995.70" waitingTime="0.00" waitingCount="0" stopTime="0.00" timeLoss="10.15" rerouteNo="0" devices="tripinfo_NS_130" vType="car" speedFactor="1.04" vaporized=""/>
    <tripinfo id="EW_75" depart="75.00" departLane="4i_0" departPos="4.10" departSpeed="0.00" departDelay="0.00" arrival="210.00" arrivalLane="3o_0" arrivalPos="492.80" arrivalSpeed="13.03" duration="135.00" routeLength="995.90" waitingTime="48.00" waitingCount="4" stopTime="0.00" timeLoss="74.47" rerouteNo="0" devices="tripinfo_EW_75" vType="car" speedFactor="1.18" vaporized=""/>
    <tripinfo id="WE_133" depart="134.00" departLane="1i_0" departPos="4.10" departSpeed="0.00" departDelay="1.00" arrival="215.00" arrivalLane="4o_0" arrivalPos="492.80" arrivalSpeed="11.83" duration="81.00" routeLength="995.70" waitingTime="0.00" waitingCount="0" stopTime="0.00" timeLoss="16.16" rerouteNo="0" devices="tripinfo_WE_133" vType="car" speedFactor="1.09" vaporized=""/>
    <tripinfo id="WE_136" depart="137.00" departLane="1i_0" departPos="4.10" departSpeed="0.00" departDelay="1.00" arrival="219.00" arrivalLane="3o_0" arrivalPos="492.80" arrivalSpeed="10.78" duration="82.00" routeLength="990.53" waitingTime="0.00" waitingCount="0" stopTime="0.00" timeLoss="11.49" rerouteNo="0" devices="tripinfo_WE_136" vType="car" speedFactor="1.00" vaporized=""/>
    <tripinfo id="EW_82" depart="82.00" departLane="4i_0" departPos="4.10" departSpeed="0.00" departDelay="0.00" arrival="221.00" arrivalLane="3o_0" arrivalPos="492.80" arrivalSpeed="12.01" duration="139.00" routeLength="995.90" waitingTime="44.00" waitingCount="4" stopTime="0.00" timeLoss="78.34" rerouteNo="0" devices="tripinfo_EW_82" vType="car" speedFactor="1.17" vaporized=""/>
    <tripinfo id="SN_41" depart="41.00" departLane="3i_0" departPos="4.10" departSpeed="0.00" departDelay="0.00" arrival="223.00" arrivalLane="1o_0" arrivalPos="492.80" arrivalSpeed="9.52" duration="182.00" routeLength="995.70" waitingTime="76.00" waitingCount="5" stopTime="0.00" timeLoss="105.93" rerouteNo="0" devices="tripinfo_SN_41" vType="car" speedFactor="0.94" vaporized=""/>
    <tripinfo id="NS_140" depart="140.00" departLane="2i_0" departPos="4.10" departSpeed="0.00" departDelay="0.00" arrival="232.00" arrivalLane="1o_0" arrivalPos="492.80" arrivalSpeed="9.97" duration="92.00" routeLength="995.90" waitingTime="0.00" waitingCount="0" stopTime="0.00" timeLoss="13.31" rerouteNo="0" devices="tripinfo_NS_140" vType="car" speedFactor="0.90" vaporized=""/>
    <tripinfo id="SN_56" depart="56.00" departLane="3i_0" departPos="4.10" departSpeed="0.00" departDelay="0.00" arrival="234.00" arrivalLane="4o_0" arrivalPos="492.80" arrivalSpeed="7.92" duration="178.00" routeLength="995.90" waitingTime="65.00" waitingCount="5" stopTime="0.00" timeLoss="91.83" rerouteNo="0" devices="tripinfo_SN_56" vType="car" speedFactor="0.83" vaporized=""/>
    <tripinfo id="WE_144" depart="144.00" departLane="1i_0" departPos="4.10" departSpeed="0.00" departDelay="0.00" arrival="236.00" arrivalLane="2o_0" arrivalPos="492.80" arrivalSpeed="9.15" duration="92.00" routeLength="995.90" waitingTime="0.00" waitingCount="0" stopTime="0.00" timeLoss="8.85" rerouteNo="0" devices="tripinfo_WE_144" vType="car" speedFactor="0.85" vaporized=""/>
    <tripinfo id="NS_156" depart="156.00" departLane="2i_0" departPos="10.10" departSpeed="0.00" departDelay="0.00" arrival="236.00" arrivalLane="4o_0" arrivalPos="492.80" arrivalSpeed="9.96" duration="80.00" routeLength="984.53" waitingTime="0.00" waitingCount="0" stopTime="0.00" timeLoss="14.05" rerouteNo="0" devices="tripinfo_NS_156" vType="truck" speedFactor="1.08" vaporized=""/>
    <tripinfo id="WE_151" depart="151.00" departLane="1i_0" departPos="10.10" departSpeed="0.00" departDelay="0.00" arrival="240.00" arrivalLane="2o_0" arrivalPos="492.80" arrivalSpeed="10.28" duration="89.00" routeLength="989.90" waitingTime="0.00" waitingCount="0" stopTime="0.00" timeLoss="12.14" rerouteNo="0" devices="tripinfo_WE_151" vType="truck" speedFactor="0.93" vaporized=""/>
    <tripinfo id="EW_97" depart="97.00" departLane="4i_0" departPos="4.10" departSpeed="0.00" departDelay="0.00" arrival="242.00" arrivalLane="2o_0" arrivalPos="492.80" arrivalSpeed="12.90" duration="145.00" routeLength="995.70" waitingTime="49.00" waitingCount="3" stopTime="0.00" timeLoss="84.41" rerouteNo="0" devices="tripinfo_EW_97" vType="car" speedFactor="1.18" vaporized=""/>
    <tripinfo id="NS_163" depart="163.00" departLane="2i_0" departPos="4.10" departSpeed="0.00" departDelay="0.00" arrival="243.00" arrivalLane="4o_0" arrivalPos="492.80" arrivalSpeed="10.00" duration="80.00" routeLength="990.53" waitingTime="0.00" waitingCount="0" stopTime="0.00" timeLoss="9.37" rerouteNo="0" devices="tripinfo_NS_163" vType="car" speedFactor="1.00" vaporized=""/>
    <tripinfo id="NS_173" depart="173.00" departLane="2i_0" departPos="4.10" departSpeed="0.00" departDelay="0.00" arrival="244.00" arrivalLane="4o_0" arrivalPos="492.80" arrivalSpeed="12.29" duration="71.00" routeLength="990.53" waitingTime="0.00" waitingCount="0" stopTime="0.00" timeLoss="9.42" rerouteNo="0" devices="tripinfo_NS_173" vType="car" speedFactor="1.14" vaporized=""/>
    <tripinfo id="SN_58" depart="58.00" departLane="3i_0" departPos="4.10" departSpeed="0.00" departDelay="0.00" arrival="248.00" arrivalLane="1o_0" arrivalPos="492.80" arrivalSpeed="9.39" duration="190.00" routeLength="995.70" waitingTime="78.00" waitingCount="4" stopTime="0.00" timeLoss="112.82" rerouteNo="0" devices="tripinfo_SN_58" vType="car" speedFactor="0.92" vaporized=""/>
    <tripinfo id="SN_71" depart="71.00" departLane="3i_0" departPos="4.10" departSpeed="0.00" departDelay="0.00" arrival="249.00" arrivalLane="2o_0" arrivalPos="492.80" arrivalSpeed="11.72" duration="178.00" routeLength="990.53" waitingTime="78.00" waitingCount="5" stopTime="0.00" timeLoss="115.45" rerouteNo="0" devices="tripinfo_SN_71" vType="car" speedFactor="1.13" vaporized=""/>
    <tripinfo id="EW_158" depart="159.00" departLane="4i_0" departPos="4.10" departSpeed="0.00" departDelay="1.00" arrival="255.00" arrivalLane="3o_0" arrivalPos="492.80" arrivalSpeed="10.15" duration="96.00" routeLength="995.90" waitingTime="8.00" waitingCount="1" stopTime="0.00" timeLoss="25.84" rerouteNo="0" devices="tripinfo_EW_158" vType="car" speedFactor="1.02" vaporized=""/>
    <tripinfo id="NS_176" depart="176.00" departLane="2i_0" departPos="4.10" departSpeed="0.00" departDelay="0.00" arrival="259.00" arrivalLane="1o_0" arrivalPos="492.80" arrivalSpeed="9.79" duration="83.00" routeLength="995.90" waitingTime="0.00" waitingCount="0" stopTime="0.00" timeLoss="9.67" rerouteNo="0" devices="tripinfo_NS_176" vType="car" speedFactor="0.97" vaporized=""/>
    <tripinfo id="NS_182" depart="182.00" departLane="2i_0" departPos="4.10" departSpeed="0.00" departDelay="0.00" arrival="261.00" arrivalLane="1o_0" arrivalPos="492.80" arrivalSpeed="11.99" duration="79.00" routeLength="995.90" waitingTime="0.00" waitingCount="0" stopTime="0.00" timeLoss="12.93" rerouteNo="0" devices="tripinfo_NS_182" vType="car" speedFactor="1.08" vaporized=""/>
    <tripinfo id="EW_162" depart="162.00" departLane="4i_0" departPos="4.10" departSpeed="0.00" departDelay="0.00" arrival="263.00" arrivalLane="1o_0" arrivalPos="492.80" arrivalSpeed="11.65" duration="101.00" routeLength="990.53" waitingTime="14.00" waitingCount="2" stopTime="0.00" timeLoss="36.12" rerouteNo="0" devices="tripinfo_EW_162" vType="car" speedFactor="1.10" vaporized=""/>
    <tripinfo id="NS_189" depart="189.00" departLane="2i_0" departPos="4.10" departSpeed="0.00" departDelay="0.00" arrival="263.00" arrivalLane="3o_0" arrivalPos="492.80" arrivalSpeed="11.89" duration="74.00" routeLength="995.70" waitingTime="0.00" waitingCount="0" stopTime="0.00" timeLoss="10.16" rerouteNo="0" devices="tripinfo_NS_189" vType="car" speedFactor="1.12" vaporized=""/>
    <tripinfo id="SN_86" depart="86.00" departLane="3i_0" departPos="4.10" departSpeed="0.00" departDelay="0.00" arrival="267.00" arrivalLane="2o_0" arrivalPos="492.80" arrivalSpeed="10.18" duration="181.00" routeLength="990.53" waitingTime="70.00" waitingCount="5" stopTime="0.00" timeLoss="109.65" rerouteNo="0" devices="tripinfo_SN_86" vType="car" speedFactor="0.99" vaporized=""/>
    <tripinfo id="WE_191" depart="193.00" departLane="1i_0" departPos="4.10" departSpeed="0.00" departDelay="2.00" arrival="270.00" arrivalLane="2o_0" arrivalPos="492.80" arrivalSpeed="10.61" duration="77.00" routeLength="995.90" waitingTime="0.00" waitingCount="0" stopTime="0.00" timeLoss="6.90" rerouteNo="0" devices="tripinfo_WE_191" vType="car" speedFactor="1.02" vaporized=""/>
    <tripinfo id="SN_100" depart="100.00" departLane="3i_0" departPos="4.10" departSpeed="0.00" departDelay="0.00" arrival="272.00" arrivalLane="2o_0" arrivalPos="492.80" arrivalSpeed="11.42" duration="172.00" routeLength="990.53" waitingTime="60.00" waitingCount="6" stopTime="0.00" timeLoss="107.41" rerouteNo="0" devices="tripinfo_SN_100" vType="car" speedFactor="1.10" vaporized=""/>
    <tripinfo id="EW_174" depart="175.00" departLane="4i_0" departPos="4.10" departSpeed="0.00" departDelay="1.00" arrival="278.00" arrivalLane="3o_0" arrivalPos="492.80" arrivalSpeed="10.29" duration="103.00" routeLength="995.90" waitingTime="8.00" waitingCount="2" stopTime="0.00" timeLoss="33.43" rerouteNo="0" devices="tripinfo_EW_174" vType="car" speedFactor="1.02" vaporized=""/>
    <tripinfo id="EW_172" depart="172.00" departLane="4i_0" departPos="4.10" departSpeed="0.00" departDelay="0.00" arrival="280.00" arrivalLane="1o_0" arrivalPos="492.80" arrivalSpeed="8.97" duration="108.00" routeLength="990.53" waitingTime="9.00" waitingCount="2" stopTime="0.00" timeLoss="29.47" rerouteNo="0" devices="tripinfo_EW_172" vType="car" speedFactor="0.90" vaporized=""/>
    <tripinfo id="EW_198" depart="198.00" departLane="4i_0" departPos="4.10" departSpeed="0.00" departDelay="0.00" arrival="287.00" arrivalLane="1o_0" arrivalPos="492.80" arrivalSpeed="8.58" duration="89.00" routeLength="990.53" waitingTime="0.00" waitingCount="0" stopTime="0.00" timeLoss="8.47" rerouteNo="0" devices="tripinfo_EW_198" vType="car" speedFactor="0.88" vaporized=""/>
    <tripinfo id="SN_104" depart="104.00" departLane="3i_0" departPos="4.10" departSpeed="0.00" departDelay="0.00" arrival="289.00" arrivalLane="1o_0" arrivalPos="492.80" arrivalSpeed="9.12" duration="185.00" routeLength="995.70" waitingTime="60.00" waitingCount="6" stopTime="0.00" timeLoss="106.66" rerouteNo="0" devices="tripinfo_SN_104" vType="car" speedFactor="0.90" vaporized=""/>
    <tripinfo id="SN_110" depart="111.00" departLane="3i_0" departPos="4.10" departSpeed="0.00" departDelay="1.00" arrival="291.00" arrivalLane="1o_0" arrivalPos="492.80" arrivalSpeed="9.51" duration="180.00" routeLength="995.70" waitingTime="56.00" waitingCount="6" stopTime="0.00" timeLoss="105.97" rerouteNo="0" devices="tripinfo_SN_110" vType="car" speedFactor="0.96" vaporized=""/>
    <tripinfo id="NS_208" depart="208.00" departLane="2i_0" departPos="4.10" departSpeed="0.00" departDelay="0.00" arrival="293.00" arrivalLane="1o_0" arrivalPos="492.80" arrivalSpeed="11.21" duration="85.00" routeLength="995.90" waitingTime="0.00" waitingCount="0" stopTime="0.00" timeLoss="15.45" rerouteNo="0" devices="tripinfo_NS_208" vType="car" speedFactor="1.02" vaporized=""/>
    <tripinfo id="SN_140" depart="140.00" departLane="3i_0" departPos="4.10" departSpeed="0.00" departDelay="0.00" arrival="297.00" arrivalLane="1o_0" arrivalPos="492.80" arrivalSpeed="9.61" duration="157.00" routeLength="995.70" waitingTime="23.00" waitingCount="5" stopTime="0.00" timeLoss="75.87" rerouteNo="0" devices="tripinfo_SN_140" vType="car" speedFactor="0.88" vaporized=""/>
    <tripinfo id="EW_202" depart="202.00" departLane="4i_0" departPos="4.10" departSpeed="0.00" departDelay="0.00" arrival="299.00" arrivalLane="1o_0" arrivalPos="492.80" arrivalSpeed="9.67" duration="97.00" routeLength="990.53" waitingTime="3.00" waitingCount="2" stopTime="0.00" timeLoss="18.96" rerouteNo="0" devices="tripinfo_EW_202" vType="car" speedFactor="0.91" vaporized=""/>
    <tripinfo id="SN_171" depart="171.00" departLane="3i_0" departPos="4.10" departSpeed="0.00" departDelay="0.00" arrival="301.00" arrivalLane="1o_0" arrivalPos="492.80" arrivalSpeed="10.82" duration="130.00" routeLength="995.70" waitingTime="7.00" waitingCount="2" stopTime="0.00" timeLoss="58.24" rerouteNo="0" devices="tripinfo_SN_171" vType="car" speedFactor="1.00" vaporized=""/>
    <tripinfo id="WE_218" depart="218.00" departLane="1i_0" departPos="4.10" departSpeed="0.00" departDelay="0.00" arrival="301.00" arrivalLane="3o_0" arrivalPos="492.80" arrivalSpeed="9.87" duration="83.00" routeLength="990.53" waitingTime="0.00" waitingCount="0" stopTime="0.00" timeLoss="8.46" rerouteNo="0" devices="tripinfo_WE_218" vType="car" speedFactor="0.96" vaporized=""/>
    <tripinfo id="SN_195" depart="195.00" departLane="3i_0" departPos="4.10" departSpeed="0.00" departDelay="0.00" arrival="302.00" arrivalLane="2o_0" arrivalPos="492.80" arrivalSpeed="10.23" duration="107.00" routeLength="990.53" waitingTime="1.00" waitingCount="1" stopTime="0.00" timeLoss="35.12" rerouteNo="0" devices="tripinfo_SN_195" vType="car" speedFactor="0.99" vaporized=""/>
    <tripinfo id="NS_214" depart="214.00" departLane="2i_0" departPos="4.10" departSpeed="0.00" departDelay="0.00" arrival="302.00" arrivalLane="1o_0" arrivalPos="492.80" arrivalSpeed="11.60" duration="88.00" routeLength="995.90" waitingTime="1.00" waitingCount="1" stopTime="0.00" timeLoss="21.08" rerouteNo="0" devices="tripinfo_NS_214" vType="car" speedFactor="1.06" vaporized=""/>
    <tripinfo id="EW_205" depart="205.00" departLane="4i_0" departPos="4.10" departSpeed="0.00" departDelay="0.00" arrival="303.00" arrivalLane="2o_0" arrivalPos="492.80" arrivalSpeed="10.44" duration="98.00" routeLength="995.70" waitingTime="4.00" waitingCount="2" stopTime="0.00" timeLoss="30.17" rerouteNo="0" devices="tripinfo_EW_205" vType="car" speedFactor="1.04" vaporized=""/>
    <tripinfo id="EW_206" depart="208.00" departLane="4i_0" departPos="4.10" departSpeed="0.00" departDelay="2.00" arrival="308.00" arrivalLane="2o_0" arrivalPos="492.80" arrivalSpeed="11.04" duration="100.00" routeLength="995.70" waitingTime="4.00" waitingCount="3" stopTime="0.00" timeLoss="30.46" rerouteNo="0" devices="tripinfo_EW_206" vType="car" speedFactor="1.02" vaporized=""/>
    <tripinfo id="EW_228" depart="228.00" departLane="4i_0" departPos="4.10" departSpeed="0.00" departDelay="0.00" arrival="308.00" arrivalLane="1o_0" arrivalPos="492.80" arrivalSpeed="11.28" duration="80.00" routeLength="990.53" waitingTime="0.00" waitingCount="0" stopTime="0.00" timeLoss="11.37" rerouteNo="0" devices="tripinfo_EW_228" vType="car" speedFactor="1.03" vaporized=""/>
    <tripinfo id="SN_196" depart="198.00" departLane="3i_0" departPos="4.10" departSpeed="0.00" departDelay="2.00" arrival="310.00" arrivalLane="4o_0" arrivalPos="492.80" arrivalSpeed="9.28" duration="112.00" routeLength="995.90" waitingTime="0.00" waitingCount="0" stopTime="0.00" timeLoss="36.39" rerouteNo="0" devices="tripinfo_SN_196" vType="car" speedFactor="0.94" vaporized=""/>
    <tripinfo id="WE_233" depart="233.00" departLane="1i_0" departPos="4.10" departSpeed="0.00" departDelay="0.00" arrival="311.00" arrivalLane="3o_0" arrivalPos="492.80" arrivalSpeed="11.03" duration="78.00" routeLength="990.53" waitingTime="0.00" waitingCount="0" stopTime="0.00" timeLoss="9.38" rerouteNo="0" devices="tripinfo_WE_233" vType="car" speedFactor="1.03" vaporized=""/>
    <tripinfo id="WE_230" depart="230.00" departLane="1i_0" departPos="4.10" departSpeed="0.00" departDelay="0.00" arrival="312.00" arrivalLane="2o_0" arrivalPos="492.80" arrivalSpeed="9.87" duration="82.00" routeLength="995.90" waitingTime="0.00" waitingCount="0" stopTime="0.00" timeLoss="9.38" rerouteNo="0" devices="tripinfo_WE_230" vType="car" speedFactor="0.98" vaporized=""/>
    <tripinfo id="NS_230" depart="230.00" departLane="2i_0" departPos="4.10" departSpeed="0.00" departDelay="0.00" arrival="312.00" arrivalLane="4o_0" arrivalPos="492.80" arrivalSpeed="10.14" duration="82.00" routeLength="990.53" waitingTime="0.00" waitingCount="0" stopTime="0.00" timeLoss="11.87" rerouteNo="0" devices="tripinfo_NS_230" vType="car" speedFactor="1.01" vaporized=""/>