<?xml version="1.0" encoding="UTF-8"?>

<!-- generated on 2024-05-05 18:21:17 by Eclipse SUMO sumo Version 1.19.0
<configuration xmlns:xsi="http://www.w3.org/2001/XMLSchema-instance" xsi:noNamespaceSchemaLocation="http://sumo.dlr.de/xsd/sumoConfiguration.xsd">

    <input>
        <net-file value="twoone.net.xml"/>
        <route-files value="route_gen.rou.xml"/>
    </input>

    <output>
        <tripinfo-output value="tripinfo_epi458.xml"/>
    </output>

    <report>
        <no-warnings value="true"/>
    </report>

    <traci_server>
        <remote-port value="59299"/>
    </traci_server>

</configuration>
-->

<tripinfos xmlns:xsi="http://www.w3.org/2001/XMLSchema-instance" xsi:noNamespaceSchemaLocation="http://sumo.dlr.de/xsd/tripinfo_file.xsd">
    <tripinfo id="NS_0" depart="0.00" departLane="2i_0" departPos="4.10" departSpeed="0.00" departDelay="0.00" arrival="75.00" arrivalLane="4o_0" arrivalPos="492.80" arrivalSpeed="10.53" duration="75.00" routeLength="990.53" waitingTime="0.00" waitingCount="0" stopTime="0.00" timeLoss="8.28" rerouteNo="0" devices="tripinfo_NS_0" vType="car" speedFactor="1.06" vaporized=""/>
    <tripinfo id="WE_5" depart="5.00" departLane="1i_0" departPos="4.10" departSpeed="0.00" departDelay="0.00" arrival="82.00" arrivalLane="4o_0" arrivalPos="492.80" arrivalSpeed="11.93" duration="77.00" routeLength="995.70" waitingTime="0.00" waitingCount="0" stopTime="0.00" timeLoss="11.40" rerouteNo="0" devices="tripinfo_WE_5" vType="car" speedFactor="1.08" vaporized=""/>
    <tripinfo id="EW_3" depart="3.00" departLane="4i_0" departPos="4.10" departSpeed="0.00" departDelay="0.00" arrival="83.00" arrivalLane="3o_0" arrivalPos="492.80" arrivalSpeed="10.60" duration="80.00" routeLength="995.90" waitingTime="0.00" waitingCount="0" stopTime="0.00" timeLoss="9.48" rerouteNo="0" devices="tripinfo_EW_3" vType="car" speedFactor="1.01" vaporized=""/>
    <tripinfo id="SN_1" depart="1.00" departLane="3i_0" departPos="4.10" departSpeed="0.00" departDelay="0.00" arrival="87.00" arrivalLane="2o_0" arrivalPos="492.80" arrivalSpeed="10.33" duration="86.00" routeLength="990.53" waitingTime="0.00" waitingCount="0" stopTime="0.00" timeLoss="10.68" rerouteNo="0" devices="tripinfo_SN_1" vType="car" speedFactor="0.94" vaporized=""/>
    <tripinfo id="EW_6" depart="7.00" departLane="4i_0" departPos="10.10" departSpeed="0.00" departDelay="1.00" arrival="92.00" arrivalLane="3o_0" arrivalPos="492.80" arrivalSpeed="10.96" duration="85.00" routeLength="989.90" waitingTime="0.00" waitingCount="0" stopTime="0.00" timeLoss="15.34" rerouteNo="0" devices="tripinfo_EW_6" vType="truck" speedFactor="1.02" vaporized=""/>
    <tripinfo id="SN_9" depart="11.00" departLane="3i_0" departPos="10.10" departSpeed="0.00" departDelay="2.00" arrival="99.00" arrivalLane="4o_0" arrivalPos="492.80" arrivalSpeed="11.17" duration="88.00" routeLength="989.90" waitingTime="0.00" waitingCount="0" stopTime="0.00" timeLoss="18.43" rerouteNo="0" devices="tripinfo_SN_9" vType="truck" speedFactor="1.02" vaporized=""/>
    <tripinfo id="SN_19" depart="19.00" departLane="3i_0" departPos="4.10" departSpeed="0.00" departDelay="0.00" arrival="100.00" arrivalLane="2o_0" arrivalPos="492.80" arrivalSpeed="11.32" duration="81.00" routeLength="990.53" waitingTime="0.00" waitingCount="0" stopTime="0.00" timeLoss="12.53" rerouteNo="0" devices="tripinfo_SN_19" vType="car" speedFactor="1.03" vaporized=""/>
    <tripinfo id="WE_15" depart="15.00" departLane="1i_0" departPos="4.10" departSpeed="0.00" departDelay="0.00" arrival="101.00" arrivalLane="4o_0" arrivalPos="492.80" arrivalSpeed="11.00" duration="86.00" routeLength="995.70" waitingTime="0.00" waitingCount="0" stopTime="0.00" timeLoss="20.63" rerouteNo="0" devices="tripinfo_WE_15" vType="car" speedFactor="1.09" vaporized=""/>
    <tripinfo id="WE_12" depart="12.00" departLane="1i_0" departPos="4.10" departSpeed="0.00" departDelay="0.00" arrival="103.00" arrivalLane="3o_0" arrivalPos="492.80" arrivalSpeed="9.78" duration="91.00" routeLength="990.53" waitingTime="0.00" waitingCount="0" stopTime="0.00" timeLoss="11.68" rerouteNo="0" devices="tripinfo_WE_12" vType="car" speedFactor="0.89" vaporized=""/>
    <tripinfo id="WE_23" depart="23.00" departLane="1i_0" departPos="10.10" departSpeed="0.00" departDelay="0.00" arrival="107.00" arrivalLane="4o_0" arrivalPos="492.80" arrivalSpeed="11.33" duration="84.00" routeLength="989.70" waitingTime="0.00" waitingCount="0" stopTime="0.00" timeLoss="15.10" rerouteNo="0" devices="tripinfo_WE_23" vType="truck" speedFactor="1.02" vaporized=""/>
    <tripinfo id="EW_25" depart="25.00" departLane="4i_0" departPos="4.10" departSpeed="0.00" departDelay="0.00" arrival="108.00" arrivalLane="3o_0" arrivalPos="492.80" arrivalSpeed="12.36" duration="83.00" routeLength="995.90" waitingTime="1.00" waitingCount="1" stopTime="0.00" timeLoss="19.85" rerouteNo="0" devices="tripinfo_EW_25" vType="car" speedFactor="1.12" vaporized=""/>
    <tripinfo id="SN_7" depart="7.00" departLane="3i_0" departPos="4.10" departSpeed="0.00" departDelay="0.00" arrival="109.00" arrivalLane="1o_0" arrivalPos="492.80" arrivalSpeed="8.71" duration="102.00" routeLength="995.70" waitingTime="0.00" waitingCount="0" stopTime="0.00" timeLoss="16.53" rerouteNo="0" devices="tripinfo_SN_7" vType="car" speedFactor="0.83" vaporized=""/>
    <tripinfo id="EW_12" depart="12.00" departLane="4i_0" departPos="10.10" departSpeed="0.00" departDelay="0.00" arrival="111.00" arrivalLane="1o_0" arrivalPos="492.80" arrivalSpeed="10.23" duration="99.00" routeLength="984.53" waitingTime="0.00" waitingCount="0" stopTime="0.00" timeLoss="26.56" rerouteNo="0" devices="tripinfo_EW_12" vType="truck" speedFactor="0.97" vaporized=""/>
    <tripinfo id="EW_13" depart="16.00" departLane="4i_0" departPos="4.10" departSpeed="0.00" departDelay="3.00" arrival="114.00" arrivalLane="2o_0" arrivalPos="492.80" arrivalSpeed="8.36" duration="98.00" routeLength="995.70" waitingTime="0.00" waitingCount="0" stopTime="0.00" timeLoss="15.61" rerouteNo="0" devices="tripinfo_EW_13" vType="car" speedFactor="0.86" vaporized=""/>
    <tripinfo id="SN_25" depart="25.00" departLane="3i_0" departPos="4.10" departSpeed="0.00" departDelay="0.00" arrival="116.00" arrivalLane="2o_0" arrivalPos="492.80" arrivalSpeed="9.81" duration="91.00" routeLength="990.53" waitingTime="2.00" waitingCount="1" stopTime="0.00" timeLoss="19.85" rerouteNo="0" devices="tripinfo_SN_25" vType="car" speedFactor="0.99" vaporized=""/>
    <tripinfo id="WE_33" depart="33.00" departLane="1i_0" departPos="4.10" departSpeed="0.00" departDelay="0.00" arrival="123.00" arrivalLane="3o_0" arrivalPos="492.80" arrivalSpeed="8.87" duration="90.00" routeLength="990.53" waitingTime="0.00" waitingCount="0" stopTime="0.00" timeLoss="9.14" rerouteNo="0" devices="tripinfo_WE_33" vType="car" speedFactor="0.88" vaporized=""/>
    <tripinfo id="SN_32" depart="32.00" departLane="3i_0" departPos="4.10" departSpeed="0.00" departDelay="0.00" arrival="134.00" arrivalLane="1o_0" arrivalPos="492.80" arrivalSpeed="10.18" duration="102.00" routeLength="995.70" waitingTime="13.00" waitingCount="1" stopTime="0.00" timeLoss="25.35" rerouteNo="0" devices="tripinfo_SN_32" vType="car" speedFactor="0.93" vaporized=""/>
    <tripinfo id="EW_48" depart="48.00" departLane="4i_0" departPos="4.10" departSpeed="0.00" departDelay="0.00" arrival="137.00" arrivalLane="3o_0" arrivalPos="492.80" arrivalSpeed="10.42" duration="89.00" routeLength="995.90" waitingTime="1.00" waitingCount="1" stopTime="0.00" timeLoss="12.89" rerouteNo="0" devices="tripinfo_EW_48" vType="car" speedFactor="0.94" vaporized=""/>
    <tripinfo id="NS_57" depart="57.00" departLane="2i_0" departPos="4.10" departSpeed="0.00" departDelay="0.00" arrival="137.00" arrivalLane="4o_0" arrivalPos="492.80" arrivalSpeed="9.57" duration="80.00" routeLength="990.53" waitingTime="0.00" waitingCount="0" stopTime="0.00" timeLoss="7.84" rerouteNo="0" devices="tripinfo_NS_57" vType="car" speedFactor="0.97" vaporized=""/>
    <tripinfo id="WE_51" depart="54.00" departLane="1i_0" departPos="10.10" departSpeed="0.00" departDelay="3.00" arrival="148.00" arrivalLane="3o_0" arrivalPos="492.80" arrivalSpeed="11.10" duration="94.00" routeLength="984.53" waitingTime="2.00" waitingCount="1" stopTime="0.00" timeLoss="23.96" rerouteNo="0" devices="tripinfo_WE_51" vType="truck" speedFactor="1.01" vaporized=""/>
    <tripinfo id="EW_56" depart="56.00" departLane="4i_0" departPos="4.10" departSpeed="0.00" departDelay="0.00" arrival="149.00" arrivalLane="2o_0" arrivalPos="492.80" arrivalSpeed="10.08" duration="93.00" routeLength="995.70" waitingTime="9.00" waitingCount="2" stopTime="0.00" timeLoss="22.51" rerouteNo="0" devices="tripinfo_EW_56" vType="car" speedFactor="1.01" vaporized=""/>
    <tripinfo id="NS_58" depart="60.00" departLane="2i_0" departPos="4.10" departSpeed="0.00" departDelay="2.00" arrival="149.00" arrivalLane="4o_0" arrivalPos="492.80" arrivalSpeed="9.15" duration="89.00" routeLength="990.53" waitingTime="0.00" waitingCount="0" stopTime="0.00" timeLoss="9.79" rerouteNo="0" devices="tripinfo_NS_58" vType="car" speedFactor="0.89" vaporized=""/>
    <tripinfo id="WE_50" depart="50.00" departLane="1i_0" departPos="4.10" departSpeed="0.00" departDelay="0.00" arrival="151.00" arrivalLane="4o_0" arrivalPos="492.80" arrivalSpeed="12.26" duration="101.00" routeLength="995.70" waitingTime="14.00" waitingCount="2" stopTime="0.00" timeLoss="39.39" rerouteNo="0" devices="tripinfo_WE_50" vType="car" speedFactor="1.16" vaporized=""/>
    <tripinfo id="SN_48" depart="48.00" departLane="3i_0" departPos="4.10" departSpeed="0.00" departDelay="0.00" arrival="158.00" arrivalLane="4o_0" arrivalPos="492.80" arrivalSpeed="9.18" duration="110.00" routeLength="995.90" waitingTime="16.00" waitingCount="3" stopTime="0.00" timeLoss="33.95" rerouteNo="0" devices="tripinfo_SN_48" vType="car" speedFactor="0.94" vaporized=""/>
    <tripinfo id="WE_67" depart="67.00" departLane="1i_0" departPos="4.10" departSpeed="0.00" departDelay="0.00" arrival="158.00" arrivalLane="3o_0" arrivalPos="492.80" arrivalSpeed="9.87" duration="91.00" routeLength="990.53" waitingTime="0.00" waitingCount="0" stopTime="0.00" timeLoss="13.97" rerouteNo="0" devices="tripinfo_WE_67" vType="car" speedFactor="0.92" vaporized=""/>
    <tripinfo id="WE_61" depart="61.00" departLane="1i_0" departPos="4.10" departSpeed="0.00" departDelay="0.00" arrival="159.00" arrivalLane="2o_0" arrivalPos="492.80" arrivalSpeed="9.28" duration="98.00" routeLength="995.90" waitingTime="0.00" waitingCount="0" stopTime="0.00" timeLoss="16.58" rerouteNo="0" devices="tripinfo_WE_61" vType="car" speedFactor="0.87" vaporized=""/>
    <tripinfo id="WE_74" depart="74.00" departLane="1i_0" departPos="4.10" departSpeed="0.00" departDelay="0.00" arrival="161.00" arrivalLane="2o_0" arrivalPos="492.80" arrivalSpeed="11.38" duration="87.00" routeLength="995.90" waitingTime="0.00" waitingCount="0" stopTime="0.00" timeLoss="23.88" rerouteNo="0" devices="tripinfo_WE_74" vType="car" speedFactor="1.13" vaporized=""/>
    <tripinfo id="WE_84" depart="84.00" departLane="1i_0" departPos="4.10" departSpeed="0.00" departDelay="0.00" arrival="163.00" arrivalLane="2o_0" arrivalPos="492.80" arrivalSpeed="12.28" duration="79.00" routeLength="995.90" waitingTime="0.00" waitingCount="0" stopTime="0.00" timeLoss="16.99" rerouteNo="0" devices="tripinfo_WE_84" vType="car" speedFactor="1.15" vaporized=""/>
    <tripinfo id="EW_77" depart="77.00" departLane="4i_0" departPos="4.10" departSpeed="0.00" departDelay="0.00" arrival="167.00" arrivalLane="1o_0" arrivalPos="492.80" arrivalSpeed="10.13" duration="90.00" routeLength="990.53" waitingTime="1.00" waitingCount="1" stopTime="0.00" timeLoss="14.63" rerouteNo="0" devices="tripinfo_EW_77" vType="car" speedFactor="0.93" vaporized=""/>
    <tripinfo id="NS_90" depart="90.00" departLane="2i_0" departPos="4.10" departSpeed="0.00" departDelay="0.00" arrival="168.00" arrivalLane="4o_0" arrivalPos="492.80" arrivalSpeed="10.96" duration="78.00" routeLength="990.53" waitingTime="1.00" waitingCount="1" stopTime="0.00" timeLoss="14.21" rerouteNo="0" devices="tripinfo_NS_90" vType="car" speedFactor="1.10" vaporized=""/>
    <tripinfo id="WE_89" depart="90.00" departLane="1i_0" departPos="4.10" departSpeed="0.00" departDelay="1.00" arrival="171.00" arrivalLane="4o_0" arrivalPos="492.80" arrivalSpeed="12.55" duration="81.00" routeLength="995.70" waitingTime="3.00" waitingCount="2" stopTime="0.00" timeLoss="20.39" rerouteNo="0" devices="tripinfo_WE_89" vType="car" speedFactor="1.18" vaporized=""/>
    <tripinfo id="SN_86" depart="87.00" departLane="3i_0" departPos="4.10" departSpeed="0.00" departDelay="1.00" arrival="172.00" arrivalLane="2o_0" arrivalPos="492.80" arrivalSpeed="12.30" duration="85.00" routeLength="990.53" waitingTime="5.00" waitingCount="2" stopTime="0.00" timeLoss="24.93" rerouteNo="0" devices="tripinfo_SN_86" vType="car" speedFactor="1.17" vaporized=""/>
    <tripinfo id="SN_84" depart="84.00" departLane="3i_0" departPos="4.10" departSpeed="0.00" departDelay="0.00" arrival="175.00" arrivalLane="1o_0" arrivalPos="492.80" arrivalSpeed="10.77" duration="91.00" routeLength="995.70" waitingTime="6.00" waitingCount="2" stopTime="0.00" timeLoss="20.56" rerouteNo="0" devices="tripinfo_SN_84" vType="car" speedFactor="1.01" vaporized=""/>
    <tripinfo id="NS_60" depart="63.00" departLane="2i_0" departPos="4.10" departSpeed="0.00" departDelay="3.00" arrival="176.00" arrivalLane="3o_0" arrivalPos="492.80" arrivalSpeed="8.82" duration="113.00" routeLength="995.70" waitingTime="12.00" waitingCount="1" stopTime="0.00" timeLoss="26.64" rerouteNo="0" devices="tripinfo_NS_60" vType="car" speedFactor="0.83" vaporized=""/>
    <tripinfo id="NS_68" depart="68.00" departLane="2i_0" departPos="4.10" departSpeed="0.00" departDelay="0.00" arrival="177.00" arrivalLane="3o_0" arrivalPos="492.80" arrivalSpeed="9.50" duration="109.00" routeLength="995.70" waitingTime="12.00" waitingCount="1" stopTime="0.00" timeLoss="34.67" rerouteNo="0" devices="tripinfo_NS_68" vType="car" speedFactor="0.95" vaporized=""/>
    <tripinfo id="EW_81" depart="82.00" departLane="4i_0" departPos="4.10" departSpeed="0.00" departDelay="1.00" arrival="179.00" arrivalLane="3o_0" arrivalPos="492.80" arrivalSpeed="11.12" duration="97.00" routeLength="995.90" waitingTime="2.00" waitingCount="2" stopTime="0.00" timeLoss="36.92" rerouteNo="0" devices="tripinfo_EW_81" vType="car" speedFactor="1.18" vaporized=""/>
    <tripinfo id="WE_88" depart="88.00" departLane="1i_0" departPos="4.10" departSpeed="0.00" departDelay="0.00" arrival="181.00" arrivalLane="3o_0" arrivalPos="492.80" arrivalSpeed="10.58" duration="93.00" routeLength="990.53" waitingTime="3.00" waitingCount="2" stopTime="0.00" timeLoss="23.68" rerouteNo="0" devices="tripinfo_WE_88" vType="car" speedFactor="1.02" vaporized=""/>
    <tripinfo id="EW_87" depart="87.00" departLane="4i_0" departPos="10.10" departSpeed="0.00" departDelay="0.00" arrival="183.00" arrivalLane="1o_0" arrivalPos="492.80" arrivalSpeed="11.04" duration="96.00" routeLength="984.53" waitingTime="4.00" waitingCount="2" stopTime="0.00" timeLoss="25.76" rerouteNo="0" devices="tripinfo_EW_87" vType="truck" speedFactor="1.00" vaporized=""/>
    <tripinfo id="SN_98" depart="98.00" departLane="3i_0" departPos="4.10" departSpeed="0.00" departDelay="0.00" arrival="187.00" arrivalLane="2o_0" arrivalPos="492.80" arrivalSpeed="12.00" duration="89.00" routeLength="990.53" waitingTime="4.00" waitingCount="1" stopTime="0.00" timeLoss="24.10" rerouteNo="0" devices="tripinfo_SN_98" vType="car" speedFactor="1.09" vaporized=""/>
    <tripinfo id="SN_90" depart="92.00" departLane="3i_0" departPos="4.10" departSpeed="0.00" departDelay="2.00" arrival="188.00" arrivalLane="4o_0" arrivalPos="492.80" arrivalSpeed="9.11" duration="96.00" routeLength="995.90" waitingTime="0.00" waitingCount="0" stopTime="0.00" timeLoss="16.86" rerouteNo="0" devices="tripinfo_SN_90" vType="car" speedFactor="0.90" vaporized=""/>
    <tripinfo id="WE_92" depart="94.00" departLane="1i_0" departPos="10.10" departSpeed="0.00" departDelay="2.00" arrival="190.00" arrivalLane="4o_0" arrivalPos="492.80" arrivalSpeed="10.94" duration="96.00" routeLength="989.70" waitingTime="0.00" waitingCount="0" stopTime="0.00" timeLoss="26.56" rerouteNo="0" devices="tripinfo_WE_92" vType="truck" speedFactor="1.02" vaporized=""/>
    <tripinfo id="NS_109" depart="109.00" departLane="2i_0" departPos="10.10" departSpeed="0.00" departDelay="0.00" arrival="192.00" arrivalLane="4o_0" arrivalPos="492.80" arrivalSpeed="11.19" duration="83.00" routeLength="984.53" waitingTime="0.00" waitingCount="0" stopTime="0.00" timeLoss="15.44" rerouteNo="0" devices="tripinfo_NS_109" vType="truck" speedFactor="1.04" vaporized=""/>
    <tripinfo id="SN_101" depart="101.00" departLane="3i_0" departPos="4.10" departSpeed="0.00" departDelay="0.00" arrival="195.00" arrivalLane="4o_0" arrivalPos="492.80" arrivalSpeed="11.29" duration="94.00" routeLength="995.90" waitingTime="4.00" waitingCount="2" stopTime="0.00" timeLoss="25.68" rerouteNo="0" devices="tripinfo_SN_101" vType="car" speedFactor="1.04" vaporized=""/>
    <tripinfo id="NS_130" depart="130.00" departLane="2i_0" departPos="4.10" departSpeed="0.00" departDelay="0.00" arrival="201.00" arrivalLane="3o_0" arrivalPos="492.80" arrivalSpeed="11.75" duration="71.00" routeLength="995.70" waitingTime="0.00" waitingCount="0" stopTime="0.00" timeLoss="9.73" rerouteNo="0" devices="tripinfo_NS_130" vType="car" speedFactor="1.17" vaporized=""/>
    <tripinfo id="EW_88" depart="92.00" departLane="4i_0" departPos="10.10" departSpeed="0.00" departDelay="4.00" arrival="203.00" arrivalLane="2o_0" arrivalPos="492.80" arrivalSpeed="10.81" duration="111.00" routeLength="989.70" waitingTime="7.00" waitingCount="3" stopTime="0.00" timeLoss="39.81" rerouteNo="0" devices="tripinfo_EW_88" vType="truck" speedFactor="0.99" vaporized=""/>
    <tripinfo id="EW_96" depart="101.00" departLane="4i_0" departPos="4.10" departSpeed="0.00" departDelay="5.00" arrival="216.00" arrivalLane="3o_0" arrivalPos="492.80" arrivalSpeed="10.60" duration="115.00" routeLength="995.90" waitingTime="12.00" waitingCount="3" stopTime="0.00" timeLoss="40.49" rerouteNo="0" devices="tripinfo_EW_96" vType="car" speedFactor="0.96" vaporized=""/>
    <tripinfo id="WE_118" depart="118.00" departLane="1i_0" departPos="4.10" departSpeed="0.00" departDelay="0.00" arrival="217.00" arrivalLane="4o_0" arrivalPos="492.80" arrivalSpeed="8.84" duration="99.00" routeLength="995.70" waitingTime="6.00" waitingCount="1" stopTime="0.00" timeLoss="19.80" rerouteNo="0" devices="tripinfo_WE_118" vType="car" speedFactor="0.90" vaporized=""/>
    <tripinfo id="SN_108" depart="108.00" departLane="3i_0" departPos="4.10" departSpeed="0.00" departDelay="0.00" arrival="218.00" arrivalLane="4o_0" arrivalPos="492.80" arrivalSpeed="10.62" duration="110.00" routeLength="995.90" waitingTime="12.00" waitingCount="2" stopTime="0.00" timeLoss="42.34" rerouteNo="0" devices="tripinfo_SN_108" vType="car" speedFactor="1.04" vaporized=""/>
    <tripinfo id="SN_115" depart="115.00" departLane="3i_0" departPos="4.10" departSpeed="0.00" departDelay="0.00" arrival="220.00" arrivalLane="1o_0" arrivalPos="492.80" arrivalSpeed="10.18" duration="105.00" routeLength="995.70" waitingTime="11.00" waitingCount="2" stopTime="0.00" timeLoss="34.12" rerouteNo="0" devices="tripinfo_SN_115" vType="car" speedFactor="1.00" vaporized=""/>
    <tripinfo id="NS_144" depart="144.00" departLane="2i_0" departPos="4.10" departSpeed="0.00" departDelay="0.00" arrival="222.00" arrivalLane="1o_0" arrivalPos="492.80" arrivalSpeed="12.01" duration="78.00" routeLength="995.90" waitingTime="0.00" waitingCount="0" stopTime="0.00" timeLoss="15.72" rerouteNo="0" devices="tripinfo_NS_144" vType="car" speedFactor="1.14" vaporized=""/>
    <tripinfo id="EW_125" depart="125.00" departLane="4i_0" departPos="10.10" departSpeed="0.00" departDelay="0.00" arrival="226.00" arrivalLane="2o_0" arrivalPos="492.80" arrivalSpeed="10.04" duration="101.00" routeLength="989.70" waitingTime="1.00" waitingCount="1" stopTime="0.00" timeLoss="25.73" rerouteNo="0" devices="tripinfo_EW_125" vType="truck" speedFactor="0.94" vaporized=""/>
    <tripinfo id="WE_127" depart="127.00" departLane="1i_0" departPos="4.10" departSpeed="0.00" departDelay="0.00" arrival="226.00" arrivalLane="4o_0" arrivalPos="492.80" arrivalSpeed="8.97" duration="99.00" routeLength="995.70" waitingTime="0.00" waitingCount="0" stopTime="0.00" timeLoss="15.20" rerouteNo="0" devices="tripinfo_WE_127" vType="car" speedFactor="0.85" vaporized=""/>
    <tripinfo id="NS_164" depart="164.00" departLane="2i_0" departPos="4.10" departSpeed="0.00" departDelay="0.00" arrival="241.00" arrivalLane="4o_0" arrivalPos="492.80" arrivalSpeed="10.03" duration="77.00" routeLength="990.53" waitingTime="0.00" waitingCount="0" stopTime="0.00" timeLoss="7.50" rerouteNo="0" devices="tripinfo_NS_164" vType="car" speedFactor="1.02" vaporized=""/>
    <tripinfo id="NS_167" depart="167.00" departLane="2i_0" departPos="4.10" departSpeed="0.00" departDelay="0.00" arrival="251.00" arrivalLane="1o_0" arrivalPos="492.80" arrivalSpeed="9.93" duration="84.00" routeLength="995.90" waitingTime="0.00" waitingCount="0" stopTime="0.00" timeLoss="8.33" rerouteNo="0" devices="tripinfo_NS_167" vType="car" speedFactor="0.94" vaporized=""/>
    <tripinfo id="NS_176" depart="176.00" departLane="2i_0" departPos="4.10" departSpeed="0.00" departDelay="0.00" arrival="252.00" arrivalLane="4o_0" arrivalPos="492.80" arrivalSpeed="11.12" duration="76.00" routeLength="990.53" waitingTime="0.00" waitingCount="0" stopTime="0.00" timeLoss="8.31" rerouteNo="0" devices="tripinfo_NS_176" vType="car" speedFactor="1.04" vaporized=""/>
    <tripinfo id="NS_177" depart="179.00" departLane="2i_0" departPos="4.10" departSpeed="0.00" departDelay="2.00" arrival="258.00" arrivalLane="3o_0" arrivalPos="492.80" arrivalSpeed="10.08" duration="79.00" routeLength="995.70" waitingTime="0.00" waitingCount="0" stopTime="0.00" timeLoss="9.42" rerouteNo="0" devices="tripinfo_NS_177" vType="car" speedFactor="1.02" vaporized=""/>
    <tripinfo id="WE_137" depart="137.00" departLane="1i_0" departPos="4.10" departSpeed="0.00" departDelay="0.00" arrival="261.00" arrivalLane="4o_0" arrivalPos="492.80" arrivalSpeed="10.74" duration="124.00" routeLength="995.70" waitingTime="39.00" waitingCount="1" stopTime="0.00" timeLoss="54.02" rerouteNo="0" devices="tripinfo_WE_137" vType="car" speedFactor="1.02" vaporized=""/>
    <tripinfo id="EW_162" depart="162.00" departLane="4i_0" departPos="4.10" departSpeed="0.00" departDelay="0.00" arrival="261.00" arrivalLane="2o_0" arrivalPos="492.80" arrivalSpeed="11.67" duration="99.00" routeLength="995.70" waitingTime="19.00" waitingCount="2" stopTime="0.00" timeLoss="33.21" rerouteNo="0" devices="tripinfo_EW_162" vType="car" speedFactor="1.08" vaporized=""/>
    <tripinfo id="WE_142" depart="142.00" departLane="1i_0" departPos="4.10" departSpeed="0.00" departDelay="0.00" arrival="264.00" arrivalLane="4o_0" arrivalPos="492.80" arrivalSpeed="10.37" duration="122.00" routeLength="995.70" waitingTime="37.00" waitingCount="1" stopTime="0.00" timeLoss="51.11" rerouteNo="0" devices="tripinfo_WE_142" vType="car" speedFactor="1.00" vaporized=""/>
    <tripinfo id="NS_187" depart="190.00" departLane="2i_0" departPos="4.10" departSpeed="0.00" departDelay="3.00" arrival="266.00" arrivalLane="1o_0" arrivalPos="492.80" arrivalSpeed="10.75" duration="76.00" routeLength="995.90" waitingTime="0.00" waitingCount="0" stopTime="0.00" timeLoss="8.77" rerouteNo="0" devices="tripinfo_NS_187" vType="car" speedFactor="1.06" vaporized=""/>
    <tripinfo id="NS_186" depart="187.00" departLane="2i_0" departPos="4.10" departSpeed="0.00" departDelay="1.00" arrival="268.00" arrivalLane="4o_0" arrivalPos="492.80" arrivalSpeed="10.75" duration="81.00" routeLength="990.53" waitingTime="0.00" waitingCount="0" stopTime="0.00" timeLoss="8.51" rerouteNo="0" devices="tripinfo_NS_186" vType="car" speedFactor="0.97" vaporized=""/>
    <tripinfo id="NS_198" depart="198.00" departLane="2i_0" departPos="4.10" departSpeed="0.00" departDelay="0.00" arrival="278.00" arrivalLane="3o_0" arrivalPos="492.80" arrivalSpeed="11.04" duration="80.00" routeLength="995.70" waitingTime="0.00" waitingCount="0" stopTime="0.00" timeLoss="10.81" rerouteNo="0" devices="tripinfo_NS_198" vType="car" speedFactor="1.03" vaporized=""/>
    <tripinfo id="NS_201" depart="203.00" departLane="2i_0" departPos="4.10" departSpeed="0.00" departDelay="2.00" arrival="282.00" arrivalLane="1o_0" arrivalPos="492.80" arrivalSpeed="10.99" duration="79.00" routeLength="995.90" waitingTime="0.00" waitingCount="0" stopTime="0.00" timeLoss="8.21" rerouteNo="0" devices="tripinfo_NS_201" vType="car" speedFactor="1.01" vaporized=""/>
    <tripinfo id="NS_205" depart="206.00" departLane="2i_0" departPos="4.10" departSpeed="0.00" departDelay="1.00" arrival="285.00" arrivalLane="1o_0" arrivalPos="492.80" arrivalSpeed="10.23" duration="79.00" routeLength="995.90" waitingTime="0.00" waitingCount="0" stopTime="0.00" timeLoss="8.05" rerouteNo="0" devices="tripinfo_NS_205" vType="car" speedFactor="1.00" vaporized=""/>
    <tripinfo id="EW_165" depart="165.00" departLane="4i_0" departPos="4.10" departSpeed="0.00" departDelay="0.00" arrival="288.00" arrivalLane="1o_0" arrivalPos="492.80" arrivalSpeed="9.84" duration="123.00" routeLength="990.53" waitingTime="32.00" waitingCount="2" stopTime="0.00" timeLoss="51.57" rerouteNo="0" devices="tripinfo_EW_165" vType="car" speedFactor="0.99" vaporized=""/>
    <tripinfo id="NS_207" depart="209.00" departLane="2i_0" departPos="4.10" departSpeed="0.00" departDelay="2.00" arrival="290.00" arrivalLane="3o_0" arrivalPos="492.80" arrivalSpeed="11.13" duration="81.00" routeLength="995.70" waitingTime="0.00" waitingCount="0" stopTime="0.00" timeLoss="10.64" rerouteNo="0" devices="tripinfo_NS_207" vType="car" speedFactor="1.02" vaporized=""/>
    <tripinfo id="WE_164" depart="164.00" departLane="1i_0" departPos="10.10" departSpeed="0.00" departDelay="0.00" arrival="292.00" arrivalLane="4o_0" arrivalPos="492.80" arrivalSpeed="11.61" duration="128.00" routeLength="989.70" waitingTime="32.00" waitingCount="2" stopTime="0.00" timeLoss="60.31" rerouteNo="0" devices="tripinfo_WE_164" vType="truck" speedFactor="1.06" vaporized=""/>
    <tripinfo id="NS_220" depart="220.00" departLane="2i_0" departPos="4.10" departSpeed="0.00" departDelay="0.00" arrival="303.00" arrivalLane="1o_0" arrivalPos="492.80" arrivalSpeed="10.00" duration="83.00" routeLength="995.90" waitingTime="0.00" waitingCount="0" stopTime="0.00" timeLoss="12.20" rerouteNo="0" devices="tripinfo_NS_220" vType="car" speedFactor="1.01" vaporized=""/>
    <tripinfo id="NS_227" depart="227.00" departLane="2i_0" departPos="4.10" departSpeed="0.00" departDelay="0.00" arrival="305.00" arrivalLane="1o_0" arrivalPos="492.80" arrivalSpeed="11.15" duration="78.00" routeLength="995.90" waitingTime="0.00" waitingCount="0" stopTime="0.00" timeLoss="8.02" rerouteNo="0" devices="tripinfo_NS_227" vType="car" speedFactor="1.02" vaporized=""/>
    <tripinfo id="EW_171" depart="171.00" departLane="4i_0" departPos="4.10" departSpeed="0.00" departDelay="0.00" arrival="307.00" arrivalLane="3o_0" arrivalPos="492.80" arrivalSpeed="8.81" duration="136.00" routeLength="995.90" waitingTime="31.00" waitingCount="3" stopTime="0.00" timeLoss="55.61" rerouteNo="0" devices="tripinfo_EW_171" vType="car" speedFactor="0.88" vaporized=""/>
    <tripinfo id="NS_234" depart="234.00" departLane="2i_0" departPos="4.10" departSpeed="0.00" departDelay="0.00" arrival="313.00" arrivalLane="3o_0" arrivalPos="492.80" arrivalSpeed="11.52" duration="79.00" routeLength="995.70" waitingTime="0.00" waitingCount="0" stopTime="0.00" timeLoss="13.39" rerouteNo="0" devices="tripinfo_NS_234" vType="car" speedFactor="1.09" vaporized=""/>
    <tripinfo id="EW_173" depart="173.00" departLane="4i_0" departPos="4.10" departSpeed="0.00" departDelay="0.00" arrival="319.00" arrivalLane="2o_0" arrivalPos="492.80" arrivalSpeed="9.90" duration="146.00" routeLength="995.70" waitingTime="39.00" waitingCount="5" stopTime="0.00" timeLoss="67.59" rerouteNo="0" devices="tripinfo_EW_173" vType="car" speedFactor="0.91" vaporized=""/>
    <tripinfo id="EW_187" depart="192.00" departLane="4i_0" departPos="4.10" departSpeed="0.00" departDelay="5.00" arrival="321.00" arrivalLane="1o_0" arrivalPos="492.80" arrivalSpeed="10.05" duration="129.00" routeLength="990.53" waitingTime="27.00" waitingCount="3" stopTime="0.00" timeLoss="53.77" rerouteNo="0" devices="tripinfo_EW_187" vType="car" speedFactor="0.94" vaporized=""/>
    <tripinfo id="WE_175" depart="175.00" departLane="1i_0" departPos="4.10" departSpeed="0.00" departDelay="0.00" arrival="323.00" arrivalLane="4o_0" arrivalPos="492.80" arrivalSpeed="9.70" duration="148.00" routeLength="995.70" waitingTime="42.00" waitingCount="3" stopTime="0.00" timeLoss="70.15" rerouteNo="0" devices="tripinfo_WE_175" vType="car" speedFactor="0.91" vaporized=""/>
    <tripinfo id="NS_238" depart="238.00" departLane="2i_0" departPos="4.10" departSpeed="0.00" departDelay="0.00" arrival="324.00" arrivalLane="4o_0" arrivalPos="492.80" arrivalSpeed="10.49" duration="86.00" routeLength="990.53" waitingTime="0.00" waitingCount="0" stopTime="0.00" timeLoss="23.49" rerouteNo="0" devices="tripinfo_NS_238" vType="car" speedFactor="1.12" vaporized=""/>
    <tripinfo id="WE_180" depart="180.00" departLane="1i_0" departPos="4.10" departSpeed="0.00" departDelay="0.00" arrival="326.00" arrivalLane="4o_0" arrivalPos="492.80" arrivalSpeed="10.17" duration="146.00" routeLength="995.70" waitingTime="39.00" waitingCount="3" stopTime="0.00" timeLoss="76.99" rerouteNo="0" devices="tripinfo_WE_180" vType="car" speedFactor="1.02" vaporized=""/>