<?xml version="1.0" encoding="UTF-8"?>

<!-- generated on 2024-05-05 18:22:18 by Eclipse SUMO sumo Version 1.19.0
<configuration xmlns:xsi="http://www.w3.org/2001/XMLSchema-instance" xsi:noNamespaceSchemaLocation="http://sumo.dlr.de/xsd/sumoConfiguration.xsd">

    <input>
        <net-file value="twoone.net.xml"/>
        <route-files value="route_gen.rou.xml"/>
    </input>

    <output>
        <tripinfo-output value="tripinfo_epi461.xml"/>
    </output>

    <report>
        <no-warnings value="true"/>
    </report>

    <traci_server>
        <remote-port value="56255"/>
    </traci_server>

</configuration>
-->

<tripinfos xmlns:xsi="http://www.w3.org/2001/XMLSchema-instance" xsi:noNamespaceSchemaLocation="http://sumo.dlr.de/xsd/tripinfo_file.xsd">
    <tripinfo id="NS_3" depart="3.00" departLane="2i_0" departPos="10.10" departSpeed="0.00" departDelay="0.00" arrival="85.00" arrivalLane="1o_0" arrivalPos="492.80" arrivalSpeed="11.39" duration="82.00" routeLength="989.90" waitingTime="0.00" waitingCount="0" stopTime="0.00" timeLoss="13.34" rerouteNo="0" devices="tripinfo_NS_3" vType="truck" speedFactor="1.03" vaporized=""/>
    <tripinfo id="NS_11" depart="11.00" departLane="2i_0" departPos="4.10" departSpeed="0.00" departDelay="0.00" arrival="91.00" arrivalLane="1o_0" arrivalPos="492.80" arrivalSpeed="11.38" duration="80.00" routeLength="995.90" waitingTime="0.00" waitingCount="0" stopTime="0.00" timeLoss="10.86" rerouteNo="0" devices="tripinfo_NS_11" vType="car" speedFactor="1.03" vaporized=""/>
    <tripinfo id="EW_8" depart="8.00" departLane="4i_0" departPos="4.10" departSpeed="0.00" departDelay="0.00" arrival="93.00" arrivalLane="2o_0" arrivalPos="492.80" arrivalSpeed="9.39" duration="85.00" routeLength="995.70" waitingTime="0.00" waitingCount="0" stopTime="0.00" timeLoss="9.65" rerouteNo="0" devices="tripinfo_EW_8" vType="car" speedFactor="0.94" vaporized=""/>
    <tripinfo id="EW_11" depart="11.00" departLane="4i_0" departPos="4.10" departSpeed="0.00" departDelay="0.00" arrival="94.00" arrivalLane="3o_0" arrivalPos="492.80" arrivalSpeed="11.73" duration="83.00" routeLength="995.90" waitingTime="1.00" waitingCount="1" stopTime="0.00" timeLoss="17.59" rerouteNo="0" devices="tripinfo_EW_11" vType="car" speedFactor="1.08" vaporized=""/>
    <tripinfo id="WE_10" depart="10.00" departLane="1i_0" departPos="4.10" departSpeed="0.00" departDelay="0.00" arrival="96.00" arrivalLane="4o_0" arrivalPos="492.80" arrivalSpeed="10.60" duration="86.00" routeLength="995.70" waitingTime="2.00" waitingCount="2" stopTime="0.00" timeLoss="15.33" rerouteNo="0" devices="tripinfo_WE_10" vType="car" speedFactor="1.01" vaporized=""/>
    <tripinfo id="SN_13" depart="13.00" departLane="3i_0" departPos="4.10" departSpeed="0.00" departDelay="0.00" arrival="100.00" arrivalLane="1o_0" arrivalPos="492.80" arrivalSpeed="11.14" duration="87.00" routeLength="995.70" waitingTime="3.00" waitingCount="2" stopTime="0.00" timeLoss="19.14" rerouteNo="0" devices="tripinfo_SN_13" vType="car" speedFactor="1.05" vaporized=""/>
    <tripinfo id="SN_14" depart="15.00" departLane="3i_0" departPos="4.10" departSpeed="0.00" departDelay="1.00" arrival="109.00" arrivalLane="2o_0" arrivalPos="492.80" arrivalSpeed="8.68" duration="94.00" routeLength="990.53" waitingTime="1.00" waitingCount="1" stopTime="0.00" timeLoss="14.42" rerouteNo="0" devices="tripinfo_SN_14" vType="car" speedFactor="0.89" vaporized=""/>
    <tripinfo id="NS_18" depart="18.00" departLane="2i_0" departPos="4.10" departSpeed="0.00" departDelay="0.00" arrival="113.00" arrivalLane="1o_0" arrivalPos="492.80" arrivalSpeed="8.88" duration="95.00" routeLength="995.90" waitingTime="0.00" waitingCount="0" stopTime="0.00" timeLoss="12.63" rerouteNo="0" devices="tripinfo_NS_18" vType="car" speedFactor="0.86" vaporized=""/>
    <tripinfo id="EW_33" depart="33.00" departLane="4i_0" departPos="4.10" departSpeed="0.00" departDelay="0.00" arrival="114.00" arrivalLane="3o_0" arrivalPos="492.80" arrivalSpeed="11.13" duration="81.00" routeLength="995.90" waitingTime="0.00" waitingCount="0" stopTime="0.00" timeLoss="15.86" rerouteNo="0" devices="tripinfo_EW_33" vType="car" speedFactor="1.09" vaporized=""/>
    <tripinfo id="NS_42" depart="42.00" departLane="2i_0" departPos="4.10" departSpeed="0.00" departDelay="0.00" arrival="116.00" arrivalLane="3o_0" arrivalPos="492.80" arrivalSpeed="12.39" duration="74.00" routeLength="995.70" waitingTime="0.00" waitingCount="0" stopTime="0.00" timeLoss="10.55" rerouteNo="0" devices="tripinfo_NS_42" vType="car" speedFactor="1.12" vaporized=""/>
    <tripinfo id="EW_13" depart="14.00" departLane="4i_0" departPos="4.10" departSpeed="0.00" departDelay="1.00" arrival="117.00" arrivalLane="1o_0" arrivalPos="492.80" arrivalSpeed="8.77" duration="103.00" routeLength="990.53" waitingTime="3.00" waitingCount="3" stopTime="0.00" timeLoss="18.15" rerouteNo="0" devices="tripinfo_EW_13" vType="car" speedFactor="0.83" vaporized=""/>
    <tripinfo id="SN_41" depart="41.00" departLane="3i_0" departPos="4.10" departSpeed="0.00" departDelay="0.00" arrival="117.00" arrivalLane="4o_0" arrivalPos="492.80" arrivalSpeed="10.96" duration="76.00" routeLength="995.90" waitingTime="0.00" waitingCount="0" stopTime="0.00" timeLoss="8.54" rerouteNo="0" devices="tripinfo_SN_41" vType="car" speedFactor="1.05" vaporized=""/>
    <tripinfo id="EW_15" depart="17.00" departLane="4i_0" departPos="4.10" departSpeed="0.00" departDelay="2.00" arrival="119.00" arrivalLane="2o_0" arrivalPos="492.80" arrivalSpeed="10.30" duration="102.00" routeLength="995.70" waitingTime="8.00" waitingCount="4" stopTime="0.00" timeLoss="26.61" rerouteNo="0" devices="tripinfo_EW_15" vType="car" speedFactor="0.94" vaporized=""/>
    <tripinfo id="EW_34" depart="36.00" departLane="4i_0" departPos="4.10" departSpeed="0.00" departDelay="2.00" arrival="119.00" arrivalLane="1o_0" arrivalPos="492.80" arrivalSpeed="10.98" duration="83.00" routeLength="990.53" waitingTime="0.00" waitingCount="0" stopTime="0.00" timeLoss="13.66" rerouteNo="0" devices="tripinfo_EW_34" vType="car" speedFactor="1.03" vaporized=""/>
    <tripinfo id="SN_43" depart="43.00" departLane="3i_0" departPos="4.10" departSpeed="0.00" departDelay="0.00" arrival="124.00" arrivalLane="2o_0" arrivalPos="492.80" arrivalSpeed="10.18" duration="81.00" routeLength="990.53" waitingTime="0.00" waitingCount="0" stopTime="0.00" timeLoss="9.94" rerouteNo="0" devices="tripinfo_SN_43" vType="car" speedFactor="0.99" vaporized=""/>
    <tripinfo id="NS_58" depart="58.00" departLane="2i_0" departPos="10.10" departSpeed="0.00" departDelay="0.00" arrival="144.00" arrivalLane="4o_0" arrivalPos="492.80" arrivalSpeed="10.18" duration="86.00" routeLength="984.53" waitingTime="0.00" waitingCount="0" stopTime="0.00" timeLoss="11.35" rerouteNo="0" devices="tripinfo_NS_58" vType="truck" speedFactor="0.94" vaporized=""/>
    <tripinfo id="EW_58" depart="58.00" departLane="4i_0" departPos="4.10" departSpeed="0.00" departDelay="0.00" arrival="152.00" arrivalLane="3o_0" arrivalPos="492.80" arrivalSpeed="9.25" duration="94.00" routeLength="995.90" waitingTime="7.00" waitingCount="1" stopTime="0.00" timeLoss="17.03" rerouteNo="0" devices="tripinfo_EW_58" vType="car" speedFactor="0.93" vaporized=""/>
    <tripinfo id="SN_58" depart="58.00" departLane="3i_0" departPos="4.10" departSpeed="0.00" departDelay="0.00" arrival="152.00" arrivalLane="4o_0" arrivalPos="492.80" arrivalSpeed="9.22" duration="94.00" routeLength="995.90" waitingTime="7.00" waitingCount="1" stopTime="0.00" timeLoss="17.99" rerouteNo="0" devices="tripinfo_SN_58" vType="car" speedFactor="0.94" vaporized=""/>
    <tripinfo id="SN_60" depart="61.00" departLane="3i_0" departPos="4.10" departSpeed="0.00" departDelay="1.00" arrival="154.00" arrivalLane="2o_0" arrivalPos="492.80" arrivalSpeed="9.11" duration="93.00" routeLength="990.53" waitingTime="3.00" waitingCount="1" stopTime="0.00" timeLoss="17.88" rerouteNo="0" devices="tripinfo_SN_60" vType="car" speedFactor="0.94" vaporized=""/>
    <tripinfo id="NS_62" depart="62.00" departLane="2i_0" departPos="4.10" departSpeed="0.00" departDelay="0.00" arrival="154.00" arrivalLane="3o_0" arrivalPos="492.80" arrivalSpeed="12.35" duration="92.00" routeLength="995.70" waitingTime="2.00" waitingCount="2" stopTime="0.00" timeLoss="30.19" rerouteNo="0" devices="tripinfo_NS_62" vType="car" speedFactor="1.16" vaporized=""/>
    <tripinfo id="NS_69" depart="69.00" departLane="2i_0" departPos="4.10" departSpeed="0.00" departDelay="0.00" arrival="154.00" arrivalLane="4o_0" arrivalPos="492.80" arrivalSpeed="11.14" duration="85.00" routeLength="990.53" waitingTime="1.00" waitingCount="1" stopTime="0.00" timeLoss="15.18" rerouteNo="0" devices="tripinfo_NS_69" vType="car" speedFactor="1.01" vaporized=""/>
    <tripinfo id="EW_65" depart="65.00" departLane="4i_0" departPos="4.10" departSpeed="0.00" departDelay="0.00" arrival="156.00" arrivalLane="2o_0" arrivalPos="492.80" arrivalSpeed="10.98" duration="91.00" routeLength="995.70" waitingTime="1.00" waitingCount="1" stopTime="0.00" timeLoss="21.07" rerouteNo="0" devices="tripinfo_EW_65" vType="car" speedFactor="1.02" vaporized=""/>
    <tripinfo id="EW_71" depart="71.00" departLane="4i_0" departPos="4.10" departSpeed="0.00" departDelay="0.00" arrival="162.00" arrivalLane="3o_0" arrivalPos="492.80" arrivalSpeed="9.48" duration="91.00" routeLength="995.90" waitingTime="0.00" waitingCount="0" stopTime="0.00" timeLoss="11.59" rerouteNo="0" devices="tripinfo_EW_71" vType="car" speedFactor="0.89" vaporized=""/>
    <tripinfo id="NS_76" depart="76.00" departLane="2i_0" departPos="4.10" departSpeed="0.00" departDelay="0.00" arrival="164.00" arrivalLane="3o_0" arrivalPos="492.80" arrivalSpeed="9.89" duration="88.00" routeLength="995.70" waitingTime="0.00" waitingCount="0" stopTime="0.00" timeLoss="10.69" rerouteNo="0" devices="tripinfo_NS_76" vType="car" speedFactor="0.92" vaporized=""/>
    <tripinfo id="WE_71" depart="71.00" departLane="1i_0" departPos="4.10" departSpeed="0.00" departDelay="0.00" arrival="165.00" arrivalLane="4o_0" arrivalPos="492.80" arrivalSpeed="10.45" duration="94.00" routeLength="995.70" waitingTime="8.00" waitingCount="2" stopTime="0.00" timeLoss="21.13" rerouteNo="0" devices="tripinfo_WE_71" vType="car" speedFactor="0.97" vaporized=""/>
    <tripinfo id="NS_78" depart="79.00" departLane="2i_0" departPos="4.10" departSpeed="0.00" departDelay="1.00" arrival="166.00" arrivalLane="3o_0" arrivalPos="492.80" arrivalSpeed="12.34" duration="87.00" routeLength="995.70" waitingTime="0.00" waitingCount="0" stopTime="0.00" timeLoss="23.92" rerouteNo="0" devices="tripinfo_NS_78" vType="car" speedFactor="1.13" vaporized=""/>
    <tripinfo id="EW_83" depart="83.00" departLane="4i_0" departPos="4.10" departSpeed="0.00" departDelay="0.00" arrival="168.00" arrivalLane="3o_0" arrivalPos="492.80" arrivalSpeed="11.53" duration="85.00" routeLength="995.90" waitingTime="1.00" waitingCount="1" stopTime="0.00" timeLoss="23.02" rerouteNo="0" devices="tripinfo_EW_83" vType="car" speedFactor="1.15" vaporized=""/>
    <tripinfo id="NS_95" depart="95.00" departLane="2i_0" departPos="4.10" departSpeed="0.00" departDelay="0.00" arrival="175.00" arrivalLane="4o_0" arrivalPos="492.80" arrivalSpeed="10.34" duration="80.00" routeLength="990.53" waitingTime="0.00" waitingCount="0" stopTime="0.00" timeLoss="7.22" rerouteNo="0" devices="tripinfo_NS_95" vType="car" speedFactor="0.97" vaporized=""/>
    <tripinfo id="EW_89" depart="89.00" departLane="4i_0" departPos="4.10" departSpeed="0.00" departDelay="0.00" arrival="176.00" arrivalLane="1o_0" arrivalPos="492.80" arrivalSpeed="12.82" duration="87.00" routeLength="990.53" waitingTime="12.00" waitingCount="1" stopTime="0.00" timeLoss="26.41" rerouteNo="0" devices="tripinfo_EW_89" vType="car" speedFactor="1.17" vaporized=""/>
    <tripinfo id="NS_107" depart="107.00" departLane="2i_0" departPos="4.10" departSpeed="0.00" departDelay="0.00" arrival="180.00" arrivalLane="1o_0" arrivalPos="492.80" arrivalSpeed="12.18" duration="73.00" routeLength="995.90" waitingTime="0.00" waitingCount="0" stopTime="0.00" timeLoss="8.72" rerouteNo="0" devices="tripinfo_NS_107" vType="car" speedFactor="1.10" vaporized=""/>
    <tripinfo id="WE_75" depart="75.00" departLane="1i_0" departPos="10.10" departSpeed="0.00" departDelay="0.00" arrival="184.00" arrivalLane="4o_0" arrivalPos="492.80" arrivalSpeed="9.86" duration="109.00" routeLength="989.70" waitingTime="9.00" waitingCount="1" stopTime="0.00" timeLoss="31.78" rerouteNo="0" devices="tripinfo_WE_75" vType="truck" speedFactor="0.91" vaporized=""/>
    <tripinfo id="EW_102" depart="102.00" departLane="4i_0" departPos="4.10" departSpeed="0.00" departDelay="0.00" arrival="186.00" arrivalLane="1o_0" arrivalPos="492.80" arrivalSpeed="12.02" duration="84.00" routeLength="990.53" waitingTime="6.00" waitingCount="2" stopTime="0.00" timeLoss="24.28" rerouteNo="0" devices="tripinfo_EW_102" vType="car" speedFactor="1.18" vaporized=""/>
    <tripinfo id="WE_77" depart="85.00" departLane="1i_0" departPos="4.10" departSpeed="0.00" departDelay="8.00" arrival="191.00" arrivalLane="2o_0" arrivalPos="492.80" arrivalSpeed="10.14" duration="106.00" routeLength="995.90" waitingTime="8.00" waitingCount="1" stopTime="0.00" timeLoss="31.55" rerouteNo="0" devices="tripinfo_WE_77" vType="car" speedFactor="0.95" vaporized=""/>
    <tripinfo id="WE_76" depart="79.00" departLane="1i_0" departPos="4.10" departSpeed="0.00" departDelay="3.00" arrival="192.00" arrivalLane="3o_0" arrivalPos="492.80" arrivalSpeed="9.43" duration="113.00" routeLength="990.53" waitingTime="10.00" waitingCount="2" stopTime="0.00" timeLoss="32.27" rerouteNo="0" devices="tripinfo_WE_76" vType="car" speedFactor="0.87" vaporized=""/>
    <tripinfo id="WE_83" depart="91.00" departLane="1i_0" departPos="4.10" departSpeed="0.00" departDelay="8.00" arrival="193.00" arrivalLane="2o_0" arrivalPos="492.80" arrivalSpeed="11.92" duration="102.00" routeLength="995.90" waitingTime="7.00" waitingCount="1" stopTime="0.00" timeLoss="41.70" rerouteNo="0" devices="tripinfo_WE_83" vType="car" speedFactor="1.18" vaporized=""/>
    <tripinfo id="WE_79" depart="88.00" departLane="1i_0" departPos="4.10" departSpeed="0.00" departDelay="9.00" arrival="197.00" arrivalLane="4o_0" arrivalPos="492.80" arrivalSpeed="9.31" duration="109.00" routeLength="995.70" waitingTime="7.00" waitingCount="1" stopTime="0.00" timeLoss="32.82" rerouteNo="0" devices="tripinfo_WE_79" vType="car" speedFactor="0.93" vaporized=""/>
    <tripinfo id="WE_88" depart="94.00" departLane="1i_0" departPos="4.10" departSpeed="0.00" departDelay="6.00" arrival="201.00" arrivalLane="4o_0" arrivalPos="492.80" arrivalSpeed="10.45" duration="107.00" routeLength="995.70" waitingTime="6.00" waitingCount="1" stopTime="0.00" timeLoss="36.16" rerouteNo="0" devices="tripinfo_WE_88" vType="car" speedFactor="1.01" vaporized=""/>
    <tripinfo id="SN_119" depart="119.00" departLane="3i_0" departPos="10.10" departSpeed="0.00" departDelay="0.00" arrival="201.00" arrivalLane="2o_0" arrivalPos="492.80" arrivalSpeed="11.37" duration="82.00" routeLength="984.53" waitingTime="0.00" waitingCount="0" stopTime="0.00" timeLoss="14.16" rerouteNo="0" devices="tripinfo_SN_119" vType="truck" speedFactor="1.04" vaporized=""/>
    <tripinfo id="NS_109" depart="113.00" departLane="2i_0" departPos="4.10" departSpeed="0.00" departDelay="4.00" arrival="202.00" arrivalLane="1o_0" arrivalPos="492.80" arrivalSpeed="11.09" duration="89.00" routeLength="995.90" waitingTime="2.00" waitingCount="2" stopTime="0.00" timeLoss="20.54" rerouteNo="0" devices="tripinfo_NS_109" vType="car" speedFactor="1.03" vaporized=""/>
    <tripinfo id="NS_108" depart="109.00" departLane="2i_0" departPos="4.10" departSpeed="0.00" departDelay="1.00" arrival="205.00" arrivalLane="3o_0" arrivalPos="492.80" arrivalSpeed="8.91" duration="96.00" routeLength="995.70" waitingTime="2.00" waitingCount="1" stopTime="0.00" timeLoss="17.50" rerouteNo="0" devices="tripinfo_NS_108" vType="car" speedFactor="0.90" vaporized=""/>
    <tripinfo id="NS_113" depart="119.00" departLane="2i_0" departPos="4.10" departSpeed="0.00" departDelay="6.00" arrival="205.00" arrivalLane="1o_0" arrivalPos="492.80" arrivalSpeed="11.88" duration="86.00" routeLength="995.90" waitingTime="0.00" waitingCount="0" stopTime="0.00" timeLoss="21.01" rerouteNo="0" devices="tripinfo_NS_113" vType="car" speedFactor="1.09" vaporized=""/>
    <tripinfo id="NS_112" depart="115.00" departLane="2i_0" departPos="4.10" departSpeed="0.00" departDelay="3.00" arrival="209.00" arrivalLane="3o_0" arrivalPos="492.80" arrivalSpeed="10.41" duration="94.00" routeLength="995.70" waitingTime="0.00" waitingCount="0" stopTime="0.00" timeLoss="20.05" rerouteNo="0" devices="tripinfo_NS_112" vType="car" speedFactor="0.96" vaporized=""/>
    <tripinfo id="NS_136" depart="136.00" departLane="2i_0" departPos="4.10" departSpeed="0.00" departDelay="0.00" arrival="211.00" arrivalLane="3o_0" arrivalPos="492.80" arrivalSpeed="12.14" duration="75.00" routeLength="995.70" waitingTime="0.00" waitingCount="0" stopTime="0.00" timeLoss="14.03" rerouteNo="0" devices="tripinfo_NS_136" vType="car" speedFactor="1.17" vaporized=""/>
    <tripinfo id="NS_120" depart="122.00" departLane="2i_0" departPos="4.10" departSpeed="0.00" departDelay="2.00" arrival="212.00" arrivalLane="1o_0" arrivalPos="492.80" arrivalSpeed="11.00" duration="90.00" routeLength="995.90" waitingTime="0.00" waitingCount="0" stopTime="0.00" timeLoss="18.35" rerouteNo="0" devices="tripinfo_NS_120" vType="car" speedFactor="1.00" vaporized=""/>
    <tripinfo id="NS_141" depart="141.00" departLane="2i_0" departPos="4.10" departSpeed="0.00" departDelay="0.00" arrival="214.00" arrivalLane="1o_0" arrivalPos="492.80" arrivalSpeed="11.10" duration="73.00" routeLength="995.90" waitingTime="0.00" waitingCount="0" stopTime="0.00" timeLoss="8.58" rerouteNo="0" devices="tripinfo_NS_141" vType="car" speedFactor="1.10" vaporized=""/>
    <tripinfo id="NS_130" depart="130.00" departLane="2i_0" departPos="4.10" departSpeed="0.00" departDelay="0.00" arrival="220.00" arrivalLane="4o_0" arrivalPos="492.80" arrivalSpeed="8.83" duration="90.00" routeLength="990.53" waitingTime="0.00" waitingCount="0" stopTime="0.00" timeLoss="9.08" rerouteNo="0" devices="tripinfo_NS_130" vType="car" speedFactor="0.88" vaporized=""/>
    <tripinfo id="WE_93" depart="96.00" departLane="1i_0" departPos="4.10" departSpeed="0.00" departDelay="3.00" arrival="227.00" arrivalLane="4o_0" arrivalPos="492.80" arrivalSpeed="10.99" duration="131.00" routeLength="995.70" waitingTime="24.00" waitingCount="2" stopTime="0.00" timeLoss="59.48" rerouteNo="0" devices="tripinfo_WE_93" vType="car" speedFactor="0.99" vaporized=""/>
    <tripinfo id="WE_95" depart="100.00" departLane="1i_0" departPos="4.10" departSpeed="0.00" departDelay="5.00" arrival="228.00" arrivalLane="2o_0" arrivalPos="492.80" arrivalSpeed="10.42" duration="128.00" routeLength="995.90" waitingTime="23.00" waitingCount="2" stopTime="0.00" timeLoss="58.60" rerouteNo="0" devices="tripinfo_WE_95" vType="car" speedFactor="1.02" vaporized=""/>
    <tripinfo id="WE_115" depart="115.00" departLane="1i_0" departPos="4.10" departSpeed="0.00" departDelay="0.00" arrival="229.00" arrivalLane="3o_0" arrivalPos="492.80" arrivalSpeed="11.16" duration="114.00" routeLength="990.53" waitingTime="18.00" waitingCount="1" stopTime="0.00" timeLoss="45.70" rerouteNo="0" devices="tripinfo_WE_115" vType="car" speedFactor="1.04" vaporized=""/>
    <tripinfo id="NS_154" depart="154.00" departLane="2i_0" departPos="4.10" departSpeed="0.00" departDelay="0.00" arrival="229.00" arrivalLane="4o_0" arrivalPos="492.80" arrivalSpeed="11.38" duration="75.00" routeLength="990.53" waitingTime="0.00" waitingCount="0" stopTime="0.00" timeLoss="11.25" rerouteNo="0" devices="tripinfo_NS_154" vType="car" speedFactor="1.12" vaporized=""/>
    <tripinfo id="WE_116" depart="119.00" departLane="1i_0" departPos="4.10" departSpeed="0.00" departDelay="3.00" arrival="231.00" arrivalLane="4o_0" arrivalPos="492.80" arrivalSpeed="10.39" duration="112.00" routeLength="995.70" waitingTime="17.00" waitingCount="1" stopTime="0.00" timeLoss="44.10" rerouteNo="0" devices="tripinfo_WE_116" vType="car" speedFactor="1.04" vaporized=""/>
    <tripinfo id="EW_148" depart="148.00" departLane="4i_0" departPos="4.10" departSpeed="0.00" departDelay="0.00" arrival="236.00" arrivalLane="3o_0" arrivalPos="492.80" arrivalSpeed="9.79" duration="88.00" routeLength="995.90" waitingTime="5.00" waitingCount="1" stopTime="0.00" timeLoss="16.76" rerouteNo="0" devices="tripinfo_EW_148" vType="car" speedFactor="1.00" vaporized=""/>
    <tripinfo id="NS_156" depart="157.00" departLane="2i_0" departPos="4.10" departSpeed="0.00" departDelay="1.00" arrival="239.00" arrivalLane="3o_0" arrivalPos="492.80" arrivalSpeed="10.89" duration="82.00" routeLength="995.70" waitingTime="0.00" waitingCount="0" stopTime="0.00" timeLoss="9.72" rerouteNo="0" devices="tripinfo_NS_156" vType="car" speedFactor="0.99" vaporized=""/>
    <tripinfo id="SN_129" depart="129.00" departLane="3i_0" departPos="4.10" departSpeed="0.00" departDelay="0.00" arrival="242.00" arrivalLane="4o_0" arrivalPos="492.80" arrivalSpeed="8.80" duration="113.00" routeLength="995.90" waitingTime="19.00" waitingCount="2" stopTime="0.00" timeLoss="34.13" rerouteNo="0" devices="tripinfo_SN_129" vType="car" speedFactor="0.90" vaporized=""/>
    <tripinfo id="EW_149" depart="152.00" departLane="4i_0" departPos="4.10" departSpeed="0.00" departDelay="3.00" arrival="246.00" arrivalLane="1o_0" arrivalPos="492.80" arrivalSpeed="9.03" duration="94.00" routeLength="990.53" waitingTime="2.00" waitingCount="1" stopTime="0.00" timeLoss="15.72" rerouteNo="0" devices="tripinfo_EW_149" vType="car" speedFactor="0.90" vaporized=""/>
    <tripinfo id="WE_133" depart="133.00" departLane="1i_0" departPos="4.10" departSpeed="0.00" departDelay="0.00" arrival="249.00" arrivalLane="4o_0" arrivalPos="492.80" arrivalSpeed="8.44" duration="116.00" routeLength="995.70" waitingTime="12.00" waitingCount="1" stopTime="0.00" timeLoss="32.99" rerouteNo="0" devices="tripinfo_WE_133" vType="car" speedFactor="0.85" vaporized=""/>
    <tripinfo id="WE_136" depart="136.00" departLane="1i_0" departPos="4.10" departSpeed="0.00" departDelay="0.00" arrival="251.00" arrivalLane="2o_0" arrivalPos="492.80" arrivalSpeed="9.08" duration="115.00" routeLength="995.90" waitingTime="9.00" waitingCount="1" stopTime="0.00" timeLoss="31.97" rerouteNo="0" devices="tripinfo_WE_136" vType="car" speedFactor="0.85" vaporized=""/>
    <tripinfo id="SN_138" depart="138.00" departLane="3i_0" departPos="4.10" departSpeed="0.00" departDelay="0.00" arrival="251.00" arrivalLane="4o_0" arrivalPos="492.80" arrivalSpeed="11.26" duration="113.00" routeLength="995.90" waitingTime="22.00" waitingCount="3" stopTime="0.00" timeLoss="42.98" rerouteNo="0" devices="tripinfo_SN_138" vType="car" speedFactor="1.02" vaporized=""/>
    <tripinfo id="EW_154" depart="155.00" departLane="4i_0" departPos="4.10" departSpeed="0.00" departDelay="1.00" arrival="253.00" arrivalLane="2o_0" arrivalPos="492.80" arrivalSpeed="11.63" duration="98.00" routeLength="995.70" waitingTime="0.00" waitingCount="0" stopTime="0.00" timeLoss="32.06" rerouteNo="0" devices="tripinfo_EW_154" vType="car" speedFactor="1.08" vaporized=""/>
    <tripinfo id="WE_150" depart="150.00" departLane="1i_0" departPos="4.10" departSpeed="0.00" departDelay="0.00" arrival="254.00" arrivalLane="2o_0" arrivalPos="492.80" arrivalSpeed="12.34" duration="104.00" routeLength="995.90" waitingTime="2.00" waitingCount="2" stopTime="0.00" timeLoss="42.10" rerouteNo="0" devices="tripinfo_WE_150" vType="car" speedFactor="1.14" vaporized=""/>
    <tripinfo id="SN_141" depart="141.00" departLane="3i_0" departPos="4.10" departSpeed="0.00" departDelay="0.00" arrival="256.00" arrivalLane="1o_0" arrivalPos="492.80" arrivalSpeed="10.07" duration="115.00" routeLength="995.70" waitingTime="19.00" waitingCount="4" stopTime="0.00" timeLoss="44.27" rerouteNo="0" devices="tripinfo_SN_141" vType="car" speedFactor="1.00" vaporized=""/>
    <tripinfo id="EW_162" depart="162.00" departLane="4i_0" departPos="4.10" departSpeed="0.00" departDelay="0.00" arrival="256.00" arrivalLane="2o_0" arrivalPos="492.80" arrivalSpeed="10.92" duration="94.00" routeLength="995.70" waitingTime="2.00" waitingCount="1" stopTime="0.00" timeLoss="26.00" rerouteNo="0" devices="tripinfo_EW_162" vType="car" speedFactor="1.04" vaporized=""/>
    <tripinfo id="SN_151" depart="154.00" departLane="3i_0" departPos="4.10" departSpeed="0.00" departDelay="3.00" arrival="262.00" arrivalLane="2o_0" arrivalPos="492.80" arrivalSpeed="10.29" duration="108.00" routeLength="990.53" waitingTime="8.00" waitingCount="3" stopTime="0.00" timeLoss="38.81" rerouteNo="0" devices="tripinfo_SN_151" vType="car" speedFactor="1.02" vaporized=""/>
    <tripinfo id="NS_157" depart="159.00" departLane="2i_0" departPos="4.10" departSpeed="0.00" departDelay="2.00" arrival="267.00" arrivalLane="3o_0" arrivalPos="492.80" arrivalSpeed="10.15" duration="108.00" routeLength="995.70" waitingTime="16.00" waitingCount="2" stopTime="0.00" timeLoss="32.15" rerouteNo="0" devices="tripinfo_NS_157" vType="car" speedFactor="0.94" vaporized=""/>
    <tripinfo id="NS_158" depart="163.00" departLane="2i_0" departPos="4.10" departSpeed="0.00" departDelay="5.00" arrival="271.00" arrivalLane="1o_0" arrivalPos="492.80" arrivalSpeed="8.95" duration="108.00" routeLength="995.90" waitingTime="13.00" waitingCount="1" stopTime="0.00" timeLoss="27.27" rerouteNo="0" devices="tripinfo_NS_158" vType="car" speedFactor="0.88" vaporized=""/>
    <tripinfo id="SN_152" depart="156.00" departLane="3i_0" departPos="4.10" departSpeed="0.00" departDelay="4.00" arrival="273.00" arrivalLane="1o_0" arrivalPos="492.80" arrivalSpeed="9.96" duration="117.00" routeLength="995.70" waitingTime="5.00" waitingCount="2" stopTime="0.00" timeLoss="43.41" rerouteNo="0" devices="tripinfo_SN_152" vType="car" speedFactor="0.97" vaporized=""/>
    <tripinfo id="NS_189" depart="189.00" departLane="2i_0" departPos="4.10" departSpeed="0.00" departDelay="0.00" arrival="274.00" arrivalLane="1o_0" arrivalPos="492.80" arrivalSpeed="11.27" duration="85.00" routeLength="995.90" waitingTime="0.00" waitingCount="0" stopTime="0.00" timeLoss="16.54" rerouteNo="0" devices="tripinfo_NS_189" vType="car" speedFactor="1.03" vaporized=""/>
    <tripinfo id="WE_156" depart="156.00" departLane="1i_0" departPos="4.10" departSpeed="0.00" departDelay="0.00" arrival="275.00" arrivalLane="4o_0" arrivalPos="492.80" arrivalSpeed="10.00" duration="119.00" routeLength="995.70" waitingTime="21.00" waitingCount="1" stopTime="0.00" timeLoss="49.32" rerouteNo="0" devices="tripinfo_WE_156" vType="car" speedFactor="1.02" vaporized=""/>
    <tripinfo id="WE_175" depart="176.00" departLane="1i_0" departPos="4.10" departSpeed="0.00" departDelay="1.00" arrival="278.00" arrivalLane="3o_0" arrivalPos="492.80" arrivalSpeed="10.17" duration="102.00" routeLength="990.53" waitingTime="17.00" waitingCount="1" stopTime="0.00" timeLoss="32.73" rerouteNo="0" devices="tripinfo_WE_175" vType="car" speedFactor="1.02" vaporized=""/>
    <tripinfo id="WE_159" depart="159.00" departLane="1i_0" departPos="4.10" departSpeed="0.00" departDelay="0.00" arrival="283.00" arrivalLane="4o_0" arrivalPos="492.80" arrivalSpeed="9.25" duration="124.00" routeLength="995.70" waitingTime="21.00" waitingCount="1" stopTime="0.00" timeLoss="46.17" rerouteNo="0" devices="tripinfo_WE_159" vType="car" speedFactor="0.91" vaporized=""/>
    <tripinfo id="WE_176" depart="180.00" departLane="1i_0" departPos="4.10" departSpeed="0.00" departDelay="4.00" arrival="283.00" arrivalLane="2o_0" arrivalPos="492.80" arrivalSpeed="10.16" duration="103.00" routeLength="995.90" waitingTime="14.00" waitingCount="1" stopTime="0.00" timeLoss="30.03" rerouteNo="0" devices="tripinfo_WE_176" vType="car" speedFactor="0.97" vaporized=""/>
    <tripinfo id="WE_181" depart="183.00" departLane="1i_0" departPos="4.10" departSpeed="0.00" departDelay="2.00" arrival="287.00" arrivalLane="3o_0" arrivalPos="492.80" arrivalSpeed="10.40" duration="104.00" routeLength="990.53" waitingTime="12.00" waitingCount="1" stopTime="0.00" timeLoss="28.33" rerouteNo="0" devices="tripinfo_WE_181" vType="car" speedFactor="0.94" vaporized=""/>
    <tripinfo id="WE_186" depart="186.00" departLane="1i_0" departPos="4.10" departSpeed="0.00" departDelay="0.00" arrival="288.00" arrivalLane="4o_0" arrivalPos="492.80" arrivalSpeed="10.08" duration="102.00" routeLength="995.70" waitingTime="11.00" waitingCount="1" stopTime="0.00" timeLoss="27.78" rerouteNo="0" devices="tripinfo_WE_186" vType="car" speedFactor="0.96" vaporized=""/>
    <tripinfo id="WE_218" depart="218.00" departLane="1i_0" departPos="4.10" departSpeed="0.00" departDelay="0.00" arrival="289.00" arrivalLane="3o_0" arrivalPos="492.80" arrivalSpeed="12.40" duration="71.00" routeLength="990.53" waitingTime="0.00" waitingCount="0" stopTime="0.00" timeLoss="8.97" rerouteNo="0" devices="tripinfo_WE_218" vType="car" speedFactor="1.15" vaporized=""/>
    <tripinfo id="WE_191" depart="191.00" departLane="1i_0" departPos="4.10" departSpeed="0.00" departDelay="0.00" arrival="290.00" arrivalLane="4o_0" arrivalPos="492.80" arrivalSpeed="10.27" duration="99.00" routeLength="995.70" waitingTime="8.00" waitingCount="1" stopTime="0.00" timeLoss="27.12" rerouteNo="0" devices="tripinfo_WE_191" vType="car" speedFactor="0.98" vaporized=""/>
    <tripinfo id="WE_204" depart="205.00" departLane="1i_0" departPos="4.10" departSpeed="0.00" departDelay="1.00" arrival="290.00" arrivalLane="2o_0" arrivalPos="492.80" arrivalSpeed="11.11" duration="85.00" routeLength="995.90" waitingTime="0.00" waitingCount="0" stopTime="0.00" timeLoss="15.45" rerouteNo="0" devices="tripinfo_WE_204" vType="car" speedFactor="1.02" vaporized=""/>