<?xml version="1.0" encoding="UTF-8"?>

<!-- generated on 2024-05-05 16:07:35 by Eclipse SUMO sumo Version 1.19.0
<configuration xmlns:xsi="http://www.w3.org/2001/XMLSchema-instance" xsi:noNamespaceSchemaLocation="http://sumo.dlr.de/xsd/sumoConfiguration.xsd">

    <input>
        <net-file value="twoone.net.xml"/>
        <route-files value="route_gen.rou.xml"/>
    </input>

    <output>
        <tripinfo-output value="tripinfo_epi99.xml"/>
    </output>

    <report>
        <no-warnings value="true"/>
    </report>

    <traci_server>
        <remote-port value="48343"/>
    </traci_server>

</configuration>
-->

<tripinfos xmlns:xsi="http://www.w3.org/2001/XMLSchema-instance" xsi:noNamespaceSchemaLocation="http://sumo.dlr.de/xsd/tripinfo_file.xsd">
    <tripinfo id="SN_0" depart="0.00" departLane="3i_0" departPos="4.10" departSpeed="0.00" departDelay="0.00" arrival="74.00" arrivalLane="2o_0" arrivalPos="492.80" arrivalSpeed="11.12" duration="74.00" routeLength="990.53" waitingTime="0.00" waitingCount="0" stopTime="0.00" timeLoss="6.86" rerouteNo="0" devices="tripinfo_SN_0" vType="car" speedFactor="1.06" vaporized=""/>
    <tripinfo id="EW_8" depart="8.00" departLane="4i_0" departPos="4.10" departSpeed="0.00" departDelay="0.00" arrival="93.00" arrivalLane="3o_0" arrivalPos="492.80" arrivalSpeed="11.07" duration="85.00" routeLength="995.90" waitingTime="3.00" waitingCount="1" stopTime="0.00" timeLoss="15.13" rerouteNo="0" devices="tripinfo_EW_8" vType="car" speedFactor="1.01" vaporized=""/>
    <tripinfo id="SN_4" depart="4.00" departLane="3i_0" departPos="4.10" departSpeed="0.00" departDelay="0.00" arrival="94.00" arrivalLane="1o_0" arrivalPos="492.80" arrivalSpeed="9.72" duration="90.00" routeLength="995.70" waitingTime="0.00" waitingCount="0" stopTime="0.00" timeLoss="14.64" rerouteNo="0" devices="tripinfo_SN_4" vType="car" speedFactor="0.94" vaporized=""/>
    <tripinfo id="WE_14" depart="14.00" departLane="1i_0" departPos="4.10" departSpeed="0.00" departDelay="0.00" arrival="94.00" arrivalLane="2o_0" arrivalPos="492.80" arrivalSpeed="11.70" duration="80.00" routeLength="995.90" waitingTime="1.00" waitingCount="1" stopTime="0.00" timeLoss="14.31" rerouteNo="0" devices="tripinfo_WE_14" vType="car" speedFactor="1.08" vaporized=""/>
    <tripinfo id="NS_22" depart="22.00" departLane="2i_0" departPos="4.10" departSpeed="0.00" departDelay="0.00" arrival="108.00" arrivalLane="3o_0" arrivalPos="492.80" arrivalSpeed="10.13" duration="86.00" routeLength="995.70" waitingTime="0.00" waitingCount="0" stopTime="0.00" timeLoss="10.42" rerouteNo="0" devices="tripinfo_NS_22" vType="car" speedFactor="0.94" vaporized=""/>
    <tripinfo id="SN_29" depart="29.00" departLane="3i_0" departPos="10.10" departSpeed="0.00" departDelay="0.00" arrival="109.00" arrivalLane="2o_0" arrivalPos="492.80" arrivalSpeed="11.72" duration="80.00" routeLength="984.53" waitingTime="0.00" waitingCount="0" stopTime="0.00" timeLoss="12.69" rerouteNo="0" devices="tripinfo_SN_29" vType="truck" speedFactor="1.06" vaporized=""/>
    <tripinfo id="EW_15" depart="15.00" departLane="4i_0" departPos="10.10" departSpeed="0.00" departDelay="0.00" arrival="111.00" arrivalLane="3o_0" arrivalPos="492.80" arrivalSpeed="10.69" duration="96.00" routeLength="989.90" waitingTime="6.00" waitingCount="1" stopTime="0.00" timeLoss="25.95" rerouteNo="0" devices="tripinfo_EW_15" vType="truck" speedFactor="1.02" vaporized=""/>
    <tripinfo id="SN_15" depart="15.00" departLane="3i_0" departPos="4.10" departSpeed="0.00" departDelay="0.00" arrival="111.00" arrivalLane="1o_0" arrivalPos="492.80" arrivalSpeed="9.18" duration="96.00" routeLength="995.70" waitingTime="0.00" waitingCount="0" stopTime="0.00" timeLoss="10.63" rerouteNo="0" devices="tripinfo_SN_15" vType="car" speedFactor="0.83" vaporized=""/>
    <tripinfo id="NS_17" depart="17.00" departLane="2i_0" departPos="4.10" departSpeed="0.00" departDelay="0.00" arrival="113.00" arrivalLane="1o_0" arrivalPos="492.80" arrivalSpeed="8.64" duration="96.00" routeLength="995.90" waitingTime="0.00" waitingCount="0" stopTime="0.00" timeLoss="16.00" rerouteNo="0" devices="tripinfo_NS_17" vType="car" speedFactor="0.89" vaporized=""/>
    <tripinfo id="NS_27" depart="27.00" departLane="2i_0" departPos="4.10" departSpeed="0.00" departDelay="0.00" arrival="113.00" arrivalLane="3o_0" arrivalPos="492.80" arrivalSpeed="11.03" duration="86.00" routeLength="995.70" waitingTime="1.00" waitingCount="1" stopTime="0.00" timeLoss="16.95" rerouteNo="0" devices="tripinfo_NS_27" vType="car" speedFactor="1.03" vaporized=""/>
    <tripinfo id="NS_23" depart="25.00" departLane="2i_0" departPos="4.10" departSpeed="0.00" departDelay="2.00" arrival="116.00" arrivalLane="4o_0" arrivalPos="492.80" arrivalSpeed="9.30" duration="91.00" routeLength="990.53" waitingTime="0.00" waitingCount="0" stopTime="0.00" timeLoss="8.77" rerouteNo="0" devices="tripinfo_NS_23" vType="car" speedFactor="0.86" vaporized=""/>
    <tripinfo id="EW_17" depart="20.00" departLane="4i_0" departPos="10.10" departSpeed="0.00" departDelay="3.00" arrival="118.00" arrivalLane="3o_0" arrivalPos="492.80" arrivalSpeed="10.95" duration="98.00" routeLength="989.90" waitingTime="0.00" waitingCount="0" stopTime="0.00" timeLoss="28.72" rerouteNo="0" devices="tripinfo_EW_17" vType="truck" speedFactor="1.02" vaporized=""/>
    <tripinfo id="SN_31" depart="33.00" departLane="3i_0" departPos="4.10" departSpeed="0.00" departDelay="2.00" arrival="121.00" arrivalLane="4o_0" arrivalPos="492.80" arrivalSpeed="9.17" duration="88.00" routeLength="995.90" waitingTime="0.00" waitingCount="0" stopTime="0.00" timeLoss="11.27" rerouteNo="0" devices="tripinfo_SN_31" vType="car" speedFactor="0.93" vaporized=""/>
    <tripinfo id="WE_30" depart="30.00" departLane="1i_0" departPos="4.10" departSpeed="0.00" departDelay="0.00" arrival="124.00" arrivalLane="3o_0" arrivalPos="492.80" arrivalSpeed="10.22" duration="94.00" routeLength="990.53" waitingTime="8.00" waitingCount="1" stopTime="0.00" timeLoss="22.42" rerouteNo="0" devices="tripinfo_WE_30" vType="car" speedFactor="0.99" vaporized=""/>
    <tripinfo id="WE_44" depart="44.00" departLane="1i_0" departPos="4.10" departSpeed="0.00" departDelay="0.00" arrival="125.00" arrivalLane="4o_0" arrivalPos="492.80" arrivalSpeed="10.48" duration="81.00" routeLength="995.70" waitingTime="0.00" waitingCount="0" stopTime="0.00" timeLoss="10.81" rerouteNo="0" devices="tripinfo_WE_44" vType="car" speedFactor="1.02" vaporized=""/>
    <tripinfo id="NS_32" depart="32.00" departLane="2i_0" departPos="4.10" departSpeed="0.00" departDelay="0.00" arrival="129.00" arrivalLane="3o_0" arrivalPos="492.80" arrivalSpeed="9.34" duration="97.00" routeLength="995.70" waitingTime="4.00" waitingCount="2" stopTime="0.00" timeLoss="21.28" rerouteNo="0" devices="tripinfo_NS_32" vType="car" speedFactor="0.94" vaporized=""/>
    <tripinfo id="EW_25" depart="25.00" departLane="4i_0" departPos="4.10" departSpeed="0.00" departDelay="0.00" arrival="130.00" arrivalLane="3o_0" arrivalPos="492.80" arrivalSpeed="11.21" duration="105.00" routeLength="995.90" waitingTime="3.00" waitingCount="1" stopTime="0.00" timeLoss="40.16" rerouteNo="0" devices="tripinfo_EW_25" vType="car" speedFactor="1.09" vaporized=""/>
    <tripinfo id="NS_34" depart="34.00" departLane="2i_0" departPos="4.10" departSpeed="0.00" departDelay="0.00" arrival="132.00" arrivalLane="4o_0" arrivalPos="492.80" arrivalSpeed="9.65" duration="98.00" routeLength="990.53" waitingTime="3.00" waitingCount="2" stopTime="0.00" timeLoss="22.36" rerouteNo="0" devices="tripinfo_NS_34" vType="car" speedFactor="0.94" vaporized=""/>
    <tripinfo id="SN_50" depart="50.00" departLane="3i_0" departPos="10.10" departSpeed="0.00" departDelay="0.00" arrival="138.00" arrivalLane="4o_0" arrivalPos="492.80" arrivalSpeed="10.78" duration="88.00" routeLength="989.90" waitingTime="0.00" waitingCount="0" stopTime="0.00" timeLoss="17.30" rerouteNo="0" devices="tripinfo_SN_50" vType="truck" speedFactor="1.01" vaporized=""/>
    <tripinfo id="NS_56" depart="56.00" departLane="2i_0" departPos="4.10" departSpeed="0.00" departDelay="0.00" arrival="149.00" arrivalLane="1o_0" arrivalPos="492.80" arrivalSpeed="9.73" duration="93.00" routeLength="995.90" waitingTime="1.00" waitingCount="1" stopTime="0.00" timeLoss="12.98" rerouteNo="0" devices="tripinfo_NS_56" vType="car" speedFactor="0.89" vaporized=""/>
    <tripinfo id="EW_29" depart="29.00" departLane="4i_0" departPos="10.10" departSpeed="0.00" departDelay="0.00" arrival="151.00" arrivalLane="1o_0" arrivalPos="492.80" arrivalSpeed="10.84" duration="122.00" routeLength="984.53" waitingTime="12.00" waitingCount="4" stopTime="0.00" timeLoss="53.45" rerouteNo="0" devices="tripinfo_EW_29" vType="truck" speedFactor="1.02" vaporized=""/>
    <tripinfo id="EW_37" depart="37.00" departLane="4i_0" departPos="4.10" departSpeed="0.00" departDelay="0.00" arrival="153.00" arrivalLane="3o_0" arrivalPos="492.80" arrivalSpeed="12.32" duration="116.00" routeLength="995.90" waitingTime="10.00" waitingCount="3" stopTime="0.00" timeLoss="54.44" rerouteNo="0" devices="tripinfo_EW_37" vType="car" speedFactor="1.16" vaporized=""/>
    <tripinfo id="SN_55" depart="55.00" departLane="3i_0" departPos="10.10" departSpeed="0.00" departDelay="0.00" arrival="156.00" arrivalLane="1o_0" arrivalPos="492.80" arrivalSpeed="10.44" duration="101.00" routeLength="989.70" waitingTime="8.00" waitingCount="1" stopTime="0.00" timeLoss="29.14" rerouteNo="0" devices="tripinfo_SN_55" vType="truck" speedFactor="0.99" vaporized=""/>
    <tripinfo id="WE_61" depart="61.00" departLane="1i_0" departPos="4.10" departSpeed="0.00" departDelay="0.00" arrival="156.00" arrivalLane="2o_0" arrivalPos="492.80" arrivalSpeed="9.51" duration="95.00" routeLength="995.90" waitingTime="2.00" waitingCount="1" stopTime="0.00" timeLoss="14.06" rerouteNo="0" devices="tripinfo_WE_61" vType="car" speedFactor="0.87" vaporized=""/>
    <tripinfo id="EW_32" depart="33.00" departLane="4i_0" departPos="4.10" departSpeed="0.00" departDelay="1.00" arrival="158.00" arrivalLane="2o_0" arrivalPos="492.80" arrivalSpeed="8.83" duration="125.00" routeLength="995.70" waitingTime="11.00" waitingCount="3" stopTime="0.00" timeLoss="44.56" rerouteNo="0" devices="tripinfo_EW_32" vType="car" speedFactor="0.88" vaporized=""/>
    <tripinfo id="NS_62" depart="62.00" departLane="2i_0" departPos="4.10" departSpeed="0.00" departDelay="0.00" arrival="166.00" arrivalLane="1o_0" arrivalPos="492.80" arrivalSpeed="9.07" duration="104.00" routeLength="995.90" waitingTime="11.00" waitingCount="3" stopTime="0.00" timeLoss="26.41" rerouteNo="0" devices="tripinfo_NS_62" vType="car" speedFactor="0.92" vaporized=""/>
    <tripinfo id="EW_58" depart="58.00" departLane="4i_0" departPos="10.10" departSpeed="0.00" departDelay="0.00" arrival="171.00" arrivalLane="2o_0" arrivalPos="492.80" arrivalSpeed="9.95" duration="113.00" routeLength="989.70" waitingTime="2.00" waitingCount="2" stopTime="0.00" timeLoss="35.80" rerouteNo="0" devices="tripinfo_EW_58" vType="truck" speedFactor="0.91" vaporized=""/>
    <tripinfo id="SN_94" depart="94.00" departLane="3i_0" departPos="4.10" departSpeed="0.00" departDelay="0.00" arrival="172.00" arrivalLane="1o_0" arrivalPos="492.80" arrivalSpeed="11.54" duration="78.00" routeLength="995.70" waitingTime="1.00" waitingCount="1" stopTime="0.00" timeLoss="13.36" rerouteNo="0" devices="tripinfo_SN_94" vType="car" speedFactor="1.10" vaporized=""/>
    <tripinfo id="EW_69" depart="69.00" departLane="4i_0" departPos="4.10" departSpeed="0.00" departDelay="0.00" arrival="173.00" arrivalLane="2o_0" arrivalPos="492.80" arrivalSpeed="12.00" duration="104.00" routeLength="995.70" waitingTime="1.00" waitingCount="1" stopTime="0.00" timeLoss="44.16" rerouteNo="0" devices="tripinfo_EW_69" vType="car" speedFactor="1.18" vaporized=""/>
    <tripinfo id="NS_64" depart="65.00" departLane="2i_0" departPos="4.10" departSpeed="0.00" departDelay="1.00" arrival="175.00" arrivalLane="3o_0" arrivalPos="492.80" arrivalSpeed="10.05" duration="110.00" routeLength="995.70" waitingTime="13.00" waitingCount="4" stopTime="0.00" timeLoss="34.91" rerouteNo="0" devices="tripinfo_NS_64" vType="car" speedFactor="0.95" vaporized=""/>
    <tripinfo id="EW_79" depart="79.00" departLane="4i_0" departPos="4.10" departSpeed="0.00" departDelay="0.00" arrival="176.00" arrivalLane="3o_0" arrivalPos="492.80" arrivalSpeed="12.46" duration="97.00" routeLength="995.90" waitingTime="0.00" waitingCount="0" stopTime="0.00" timeLoss="35.79" rerouteNo="0" devices="tripinfo_EW_79" vType="car" speedFactor="1.15" vaporized=""/>
    <tripinfo id="WE_86" depart="86.00" departLane="1i_0" departPos="10.10" departSpeed="0.00" departDelay="0.00" arrival="181.00" arrivalLane="2o_0" arrivalPos="492.80" arrivalSpeed="10.84" duration="95.00" routeLength="989.90" waitingTime="4.00" waitingCount="1" stopTime="0.00" timeLoss="24.92" rerouteNo="0" devices="tripinfo_WE_86" vType="truck" speedFactor="1.01" vaporized=""/>
    <tripinfo id="SN_102" depart="103.00" departLane="3i_0" departPos="4.10" departSpeed="0.00" departDelay="1.00" arrival="186.00" arrivalLane="1o_0" arrivalPos="492.80" arrivalSpeed="11.07" duration="83.00" routeLength="995.70" waitingTime="2.00" waitingCount="1" stopTime="0.00" timeLoss="18.24" rerouteNo="0" devices="tripinfo_SN_102" vType="car" speedFactor="1.09" vaporized=""/>
    <tripinfo id="WE_88" depart="89.00" departLane="1i_0" departPos="4.10" departSpeed="0.00" departDelay="1.00" arrival="187.00" arrivalLane="3o_0" arrivalPos="492.80" arrivalSpeed="10.41" duration="98.00" routeLength="990.53" waitingTime="3.00" waitingCount="2" stopTime="0.00" timeLoss="25.20" rerouteNo="0" devices="tripinfo_WE_88" vType="car" speedFactor="0.97" vaporized=""/>
    <tripinfo id="SN_100" depart="100.00" departLane="3i_0" departPos="4.10" departSpeed="0.00" departDelay="0.00" arrival="188.00" arrivalLane="4o_0" arrivalPos="492.80" arrivalSpeed="10.37" duration="88.00" routeLength="995.90" waitingTime="1.00" waitingCount="1" stopTime="0.00" timeLoss="13.87" rerouteNo="0" devices="tripinfo_SN_100" vType="car" speedFactor="0.96" vaporized=""/>
    <tripinfo id="NS_65" depart="68.00" departLane="2i_0" departPos="4.10" departSpeed="0.00" departDelay="3.00" arrival="189.00" arrivalLane="3o_0" arrivalPos="492.80" arrivalSpeed="11.40" duration="121.00" routeLength="995.70" waitingTime="25.00" waitingCount="5" stopTime="0.00" timeLoss="57.78" rerouteNo="0" devices="tripinfo_NS_65" vType="car" speedFactor="1.13" vaporized=""/>
    <tripinfo id="WE_95" depart="95.00" departLane="1i_0" departPos="4.10" departSpeed="0.00" departDelay="0.00" arrival="193.00" arrivalLane="2o_0" arrivalPos="492.80" arrivalSpeed="9.11" duration="98.00" routeLength="995.90" waitingTime="1.00" waitingCount="1" stopTime="0.00" timeLoss="19.28" rerouteNo="0" devices="tripinfo_WE_95" vType="car" speedFactor="0.90" vaporized=""/>
    <tripinfo id="WE_112" depart="113.00" departLane="1i_0" departPos="4.10" departSpeed="0.00" departDelay="1.00" arrival="195.00" arrivalLane="2o_0" arrivalPos="492.80" arrivalSpeed="11.49" duration="82.00" routeLength="995.90" waitingTime="0.00" waitingCount="0" stopTime="0.00" timeLoss="13.65" rerouteNo="0" devices="tripinfo_WE_112" vType="car" speedFactor="1.04" vaporized=""/>
    <tripinfo id="EW_116" depart="116.00" departLane="4i_0" departPos="4.10" departSpeed="0.00" departDelay="0.00" arrival="197.00" arrivalLane="3o_0" arrivalPos="492.80" arrivalSpeed="10.98" duration="81.00" routeLength="995.90" waitingTime="0.00" waitingCount="0" stopTime="0.00" timeLoss="10.01" rerouteNo="0" devices="tripinfo_EW_116" vType="car" speedFactor="1.00" vaporized=""/>
    <tripinfo id="NS_79" depart="79.00" departLane="2i_0" departPos="4.10" departSpeed="0.00" departDelay="0.00" arrival="198.00" arrivalLane="4o_0" arrivalPos="492.80" arrivalSpeed="10.06" duration="119.00" routeLength="990.53" waitingTime="16.00" waitingCount="4" stopTime="0.00" timeLoss="48.72" rerouteNo="0" devices="tripinfo_NS_79" vType="car" speedFactor="1.01" vaporized=""/>
    <tripinfo id="NS_66" depart="71.00" departLane="2i_0" departPos="4.10" departSpeed="0.00" departDelay="5.00" arrival="199.00" arrivalLane="1o_0" arrivalPos="492.80" arrivalSpeed="10.35" duration="128.00" routeLength="995.90" waitingTime="21.00" waitingCount="4" stopTime="0.00" timeLoss="52.18" rerouteNo="0" devices="tripinfo_NS_66" vType="car" speedFactor="0.93" vaporized=""/>
    <tripinfo id="NS_82" depart="82.00" departLane="2i_0" departPos="4.10" departSpeed="0.00" departDelay="0.00" arrival="200.00" arrivalLane="4o_0" arrivalPos="492.80" arrivalSpeed="12.64" duration="118.00" routeLength="990.53" waitingTime="12.00" waitingCount="4" stopTime="0.00" timeLoss="57.30" rerouteNo="0" devices="tripinfo_NS_82" vType="car" speedFactor="1.17" vaporized=""/>
    <tripinfo id="NS_89" depart="89.00" departLane="2i_0" departPos="4.10" departSpeed="0.00" departDelay="0.00" arrival="201.00" arrivalLane="4o_0" arrivalPos="492.80" arrivalSpeed="12.83" duration="112.00" routeLength="990.53" waitingTime="8.00" waitingCount="2" stopTime="0.00" timeLoss="52.35" rerouteNo="0" devices="tripinfo_NS_89" vType="car" speedFactor="1.18" vaporized=""/>
    <tripinfo id="SN_117" depart="118.00" departLane="3i_0" departPos="4.10" departSpeed="0.00" departDelay="1.00" arrival="205.00" arrivalLane="2o_0" arrivalPos="492.80" arrivalSpeed="9.29" duration="87.00" routeLength="990.53" waitingTime="0.00" waitingCount="0" stopTime="0.00" timeLoss="7.90" rerouteNo="0" devices="tripinfo_SN_117" vType="car" speedFactor="0.90" vaporized=""/>
    <tripinfo id="NS_84" depart="84.00" departLane="2i_0" departPos="4.10" departSpeed="0.00" departDelay="0.00" arrival="206.00" arrivalLane="3o_0" arrivalPos="492.80" arrivalSpeed="9.93" duration="122.00" routeLength="995.70" waitingTime="10.00" waitingCount="3" stopTime="0.00" timeLoss="50.37" rerouteNo="0" devices="tripinfo_NS_84" vType="car" speedFactor="0.99" vaporized=""/>
    <tripinfo id="NS_99" depart="99.00" departLane="2i_0" departPos="10.10" departSpeed="0.00" departDelay="0.00" arrival="212.00" arrivalLane="3o_0" arrivalPos="492.80" arrivalSpeed="11.02" duration="113.00" routeLength="989.70" waitingTime="6.00" waitingCount="1" stopTime="0.00" timeLoss="43.39" rerouteNo="0" devices="tripinfo_NS_99" vType="truck" speedFactor="1.02" vaporized=""/>
    <tripinfo id="WE_135" depart="135.00" departLane="1i_0" departPos="4.10" departSpeed="0.00" departDelay="0.00" arrival="217.00" arrivalLane="3o_0" arrivalPos="492.80" arrivalSpeed="10.65" duration="82.00" routeLength="990.53" waitingTime="0.00" waitingCount="0" stopTime="0.00" timeLoss="12.34" rerouteNo="0" devices="tripinfo_WE_135" vType="car" speedFactor="1.02" vaporized=""/>
    <tripinfo id="EW_126" depart="126.00" departLane="4i_0" departPos="4.10" departSpeed="0.00" departDelay="0.00" arrival="225.00" arrivalLane="2o_0" arrivalPos="492.80" arrivalSpeed="8.37" duration="99.00" routeLength="995.70" waitingTime="1.00" waitingCount="1" stopTime="0.00" timeLoss="15.99" rerouteNo="0" devices="tripinfo_EW_126" vType="car" speedFactor="0.85" vaporized=""/>
    <tripinfo id="SN_126" depart="126.00" departLane="3i_0" departPos="4.10" departSpeed="0.00" departDelay="0.00" arrival="226.00" arrivalLane="1o_0" arrivalPos="492.80" arrivalSpeed="9.14" duration="100.00" routeLength="995.70" waitingTime="2.00" waitingCount="1" stopTime="0.00" timeLoss="16.74" rerouteNo="0" devices="tripinfo_SN_126" vType="car" speedFactor="0.85" vaporized=""/>
    <tripinfo id="WE_138" depart="138.00" departLane="1i_0" departPos="4.10" departSpeed="0.00" departDelay="0.00" arrival="227.00" arrivalLane="2o_0" arrivalPos="492.80" arrivalSpeed="12.08" duration="89.00" routeLength="995.90" waitingTime="0.00" waitingCount="0" stopTime="0.00" timeLoss="23.98" rerouteNo="0" devices="tripinfo_WE_138" vType="car" speedFactor="1.10" vaporized=""/>
    <tripinfo id="NS_109" depart="109.00" departLane="2i_0" departPos="4.10" departSpeed="0.00" departDelay="0.00" arrival="228.00" arrivalLane="1o_0" arrivalPos="492.80" arrivalSpeed="10.42" duration="119.00" routeLength="995.90" waitingTime="8.00" waitingCount="3" stopTime="0.00" timeLoss="50.22" rerouteNo="0" devices="tripinfo_NS_109" vType="car" speedFactor="1.04" vaporized=""/>
    <tripinfo id="SN_139" depart="139.00" departLane="3i_0" departPos="4.10" departSpeed="0.00" departDelay="0.00" arrival="229.00" arrivalLane="1o_0" arrivalPos="492.80" arrivalSpeed="10.53" duration="90.00" routeLength="995.70" waitingTime="0.00" waitingCount="0" stopTime="0.00" timeLoss="19.09" rerouteNo="0" devices="tripinfo_SN_139" vType="car" speedFactor="1.00" vaporized=""/>
    <tripinfo id="EW_146" depart="146.00" departLane="4i_0" departPos="4.10" departSpeed="0.00" departDelay="0.00" arrival="229.00" arrivalLane="3o_0" arrivalPos="492.80" arrivalSpeed="10.37" duration="83.00" routeLength="995.90" waitingTime="0.00" waitingCount="0" stopTime="0.00" timeLoss="13.16" rerouteNo="0" devices="tripinfo_EW_146" vType="car" speedFactor="1.02" vaporized=""/>
    <tripinfo id="NS_112" depart="112.00" departLane="2i_0" departPos="4.10" departSpeed="0.00" departDelay="0.00" arrival="231.00" arrivalLane="1o_0" arrivalPos="492.80" arrivalSpeed="11.46" duration="119.00" routeLength="995.90" waitingTime="6.00" waitingCount="3" stopTime="0.00" timeLoss="53.71" rerouteNo="0" devices="tripinfo_NS_112" vType="car" speedFactor="1.09" vaporized=""/>
    <tripinfo id="SN_142" depart="142.00" departLane="3i_0" departPos="4.10" departSpeed="0.00" departDelay="0.00" arrival="233.00" arrivalLane="4o_0" arrivalPos="492.80" arrivalSpeed="9.08" duration="91.00" routeLength="995.90" waitingTime="0.00" waitingCount="0" stopTime="0.00" timeLoss="11.88" rerouteNo="0" devices="tripinfo_SN_142" vType="car" speedFactor="0.90" vaporized=""/>
    <tripinfo id="WE_149" depart="151.00" departLane="1i_0" departPos="4.10" departSpeed="0.00" departDelay="2.00" arrival="233.00" arrivalLane="2o_0" arrivalPos="492.80" arrivalSpeed="9.71" duration="82.00" routeLength="995.90" waitingTime="0.00" waitingCount="0" stopTime="0.00" timeLoss="8.92" rerouteNo="0" devices="tripinfo_WE_149" vType="car" speedFactor="0.97" vaporized=""/>
    <tripinfo id="EW_150" depart="150.00" departLane="4i_0" departPos="10.10" departSpeed="0.00" departDelay="0.00" arrival="233.00" arrivalLane="1o_0" arrivalPos="492.80" arrivalSpeed="11.33" duration="83.00" routeLength="984.53" waitingTime="0.00" waitingCount="0" stopTime="0.00" timeLoss="16.35" rerouteNo="0" devices="tripinfo_EW_150" vType="truck" speedFactor="1.06" vaporized=""/>
    <tripinfo id="NS_138" depart="138.00" departLane="2i_0" departPos="4.10" departSpeed="0.00" departDelay="0.00" arrival="237.00" arrivalLane="3o_0" arrivalPos="492.80" arrivalSpeed="10.16" duration="99.00" routeLength="995.70" waitingTime="0.00" waitingCount="0" stopTime="0.00" timeLoss="28.28" rerouteNo="0" devices="tripinfo_NS_138" vType="car" speedFactor="1.00" vaporized=""/>
    <tripinfo id="NS_121" depart="121.00" departLane="2i_0" departPos="4.10" departSpeed="0.00" departDelay="0.00" arrival="239.00" arrivalLane="4o_0" arrivalPos="492.80" arrivalSpeed="9.03" duration="118.00" routeLength="990.53" waitingTime="2.00" waitingCount="1" stopTime="0.00" timeLoss="37.55" rerouteNo="0" devices="tripinfo_NS_121" vType="car" speedFactor="0.88" vaporized=""/>
    <tripinfo id="NS_131" depart="131.00" departLane="2i_0" departPos="4.10" departSpeed="0.00" departDelay="0.00" arrival="241.00" arrivalLane="4o_0" arrivalPos="492.80" arrivalSpeed="11.85" duration="110.00" routeLength="990.53" waitingTime="1.00" waitingCount="1" stopTime="0.00" timeLoss="49.34" rerouteNo="0" devices="tripinfo_NS_131" vType="car" speedFactor="1.17" vaporized=""/>
    <tripinfo id="NS_145" depart="145.00" departLane="2i_0" departPos="10.10" departSpeed="0.00" departDelay="0.00" arrival="243.00" arrivalLane="4o_0" arrivalPos="492.80" arrivalSpeed="10.51" duration="98.00" routeLength="984.53" waitingTime="0.00" waitingCount="0" stopTime="0.00" timeLoss="31.79" rerouteNo="0" devices="tripinfo_NS_145" vType="truck" speedFactor="1.07" vaporized=""/>
    <tripinfo id="SN_150" depart="150.00" departLane="3i_0" departPos="4.10" departSpeed="0.00" departDelay="0.00" arrival="244.00" arrivalLane="1o_0" arrivalPos="492.80" arrivalSpeed="11.06" duration="94.00" routeLength="995.70" waitingTime="8.00" waitingCount="2" stopTime="0.00" timeLoss="24.23" rerouteNo="0" devices="tripinfo_SN_150" vType="car" speedFactor="1.02" vaporized=""/>
    <tripinfo id="EW_152" depart="154.00" departLane="4i_0" departPos="4.10" departSpeed="0.00" departDelay="2.00" arrival="244.00" arrivalLane="2o_0" arrivalPos="492.80" arrivalSpeed="10.13" duration="90.00" routeLength="995.70" waitingTime="0.00" waitingCount="0" stopTime="0.00" timeLoss="14.45" rerouteNo="0" devices="tripinfo_EW_152" vType="car" speedFactor="0.94" vaporized=""/>
    <tripinfo id="EW_158" depart="158.00" departLane="4i_0" departPos="4.10" departSpeed="0.00" departDelay="0.00" arrival="246.00" arrivalLane="2o_0" arrivalPos="492.80" arrivalSpeed="11.01" duration="88.00" routeLength="995.70" waitingTime="0.00" waitingCount="0" stopTime="0.00" timeLoss="19.57" rerouteNo="0" devices="tripinfo_EW_158" vType="car" speedFactor="1.04" vaporized=""/>
    <tripinfo id="WE_162" depart="162.00" departLane="1i_0" departPos="4.10" departSpeed="0.00" departDelay="0.00" arrival="249.00" arrivalLane="2o_0" arrivalPos="492.80" arrivalSpeed="10.40" duration="87.00" routeLength="995.90" waitingTime="2.00" waitingCount="1" stopTime="0.00" timeLoss="17.63" rerouteNo="0" devices="tripinfo_WE_162" vType="car" speedFactor="1.02" vaporized=""/>
    <tripinfo id="WE_163" depart="166.00" departLane="1i_0" departPos="4.10" departSpeed="0.00" departDelay="3.00" arrival="251.00" arrivalLane="2o_0" arrivalPos="492.80" arrivalSpeed="10.17" duration="85.00" routeLength="995.90" waitingTime="0.00" waitingCount="0" stopTime="0.00" timeLoss="15.56" rerouteNo="0" devices="tripinfo_WE_163" vType="car" speedFactor="1.02" vaporized=""/>
    <tripinfo id="WE_155" depart="156.00" departLane="1i_0" departPos="4.10" departSpeed="0.00" departDelay="1.00" arrival="254.00" arrivalLane="4o_0" arrivalPos="492.80" arrivalSpeed="8.81" duration="98.00" routeLength="995.70" waitingTime="5.00" waitingCount="2" stopTime="0.00" timeLoss="18.00" rerouteNo="0" devices="tripinfo_WE_155" vType="car" speedFactor="0.88" vaporized=""/>
    <tripinfo id="WE_171" depart="172.00" departLane="1i_0" departPos="4.10" departSpeed="0.00" departDelay="1.00" arrival="255.00" arrivalLane="3o_0" arrivalPos="492.80" arrivalSpeed="10.98" duration="83.00" routeLength="990.53" waitingTime="1.00" waitingCount="1" stopTime="0.00" timeLoss="16.23" rerouteNo="0" devices="tripinfo_WE_171" vType="car" speedFactor="1.06" vaporized=""/>
    <tripinfo id="NS_149" depart="149.00" departLane="2i_0" departPos="4.10" departSpeed="0.00" departDelay="0.00" arrival="256.00" arrivalLane="4o_0" arrivalPos="492.80" arrivalSpeed="11.93" duration="107.00" routeLength="990.53" waitingTime="4.00" waitingCount="1" stopTime="0.00" timeLoss="41.57" rerouteNo="0" devices="tripinfo_NS_149" vType="car" speedFactor="1.08" vaporized=""/>
    <tripinfo id="EW_168" depart="168.00" departLane="4i_0" departPos="4.10" departSpeed="0.00" departDelay="0.00" arrival="257.00" arrivalLane="1o_0" arrivalPos="492.80" arrivalSpeed="9.32" duration="89.00" routeLength="990.53" waitingTime="2.00" waitingCount="1" stopTime="0.00" timeLoss="13.90" rerouteNo="0" devices="tripinfo_EW_168" vType="car" speedFactor="0.94" vaporized=""/>
    <tripinfo id="SN_172" depart="172.00" departLane="3i_0" departPos="4.10" departSpeed="0.00" departDelay="0.00" arrival="258.00" arrivalLane="4o_0" arrivalPos="492.80" arrivalSpeed="9.98" duration="86.00" routeLength="995.90" waitingTime="0.00" waitingCount="0" stopTime="0.00" timeLoss="11.60" rerouteNo="0" devices="tripinfo_SN_172" vType="car" speedFactor="0.96" vaporized=""/>
    <tripinfo id="EW_188" depart="188.00" departLane="4i_0" departPos="4.10" departSpeed="0.00" departDelay="0.00" arrival="258.00" arrivalLane="3o_0" arrivalPos="492.80" arrivalSpeed="12.75" duration="70.00" routeLength="995.90" waitingTime="0.00" waitingCount="0" stopTime="0.00" timeLoss="8.09" rerouteNo="0" devices="tripinfo_EW_188" vType="car" speedFactor="1.15" vaporized=""/>
    <tripinfo id="NS_151" depart="152.00" departLane="2i_0" departPos="4.10" departSpeed="0.00" departDelay="1.00" arrival="260.00" arrivalLane="4o_0" arrivalPos="492.80" arrivalSpeed="10.57" duration="108.00" routeLength="990.53" waitingTime="5.00" waitingCount="2" stopTime="0.00" timeLoss="36.30" rerouteNo="0" devices="tripinfo_NS_151" vType="car" speedFactor="0.99" vaporized=""/>
    <tripinfo id="EW_177" depart="177.00" departLane="4i_0" departPos="4.10" departSpeed="0.00" departDelay="0.00" arrival="261.00" arrivalLane="1o_0" arrivalPos="492.80" arrivalSpeed="10.18" duration="84.00" routeLength="990.53" waitingTime="1.00" waitingCount="1" stopTime="0.00" timeLoss="13.74" rerouteNo="0" devices="tripinfo_EW_177" vType="car" speedFactor="1.01" vaporized=""/>
    <tripinfo id="SN_173" depart="176.00" departLane="3i_0" departPos="4.10" departSpeed="0.00" departDelay="3.00" arrival="263.00" arrivalLane="4o_0" arrivalPos="492.80" arrivalSpeed="10.00" duration="87.00" routeLength="995.90" waitingTime="1.00" waitingCount="1" stopTime="0.00" timeLoss="14.62" rerouteNo="0" devices="tripinfo_SN_173" vType="car" speedFactor="0.98" vaporized=""/>
    <tripinfo id="WE_179" depart="179.00" departLane="1i_0" departPos="4.10" departSpeed="0.00" departDelay="0.00" arrival="268.00" arrivalLane="2o_0" arrivalPos="492.80" arrivalSpeed="11.14" duration="89.00" routeLength="995.90" waitingTime="1.00" waitingCount="1" stopTime="0.00" timeLoss="23.79" rerouteNo="0" devices="tripinfo_WE_179" vType="car" speedFactor="1.09" vaporized=""/>