<?xml version="1.0" encoding="UTF-8"?>

<!-- generated on 2024-05-05 17:41:29 by Eclipse SUMO sumo Version 1.19.0
<configuration xmlns:xsi="http://www.w3.org/2001/XMLSchema-instance" xsi:noNamespaceSchemaLocation="http://sumo.dlr.de/xsd/sumoConfiguration.xsd">

    <input>
        <net-file value="twoone.net.xml"/>
        <route-files value="route_gen.rou.xml"/>
    </input>

    <output>
        <tripinfo-output value="tripinfo_epi345.xml"/>
    </output>

    <report>
        <no-warnings value="true"/>
    </report>

    <traci_server>
        <remote-port value="45329"/>
    </traci_server>

</configuration>
-->

<tripinfos xmlns:xsi="http://www.w3.org/2001/XMLSchema-instance" xsi:noNamespaceSchemaLocation="http://sumo.dlr.de/xsd/tripinfo_file.xsd">
    <tripinfo id="WE_2" depart="2.00" departLane="1i_0" departPos="4.10" departSpeed="0.00" departDelay="0.00" arrival="80.00" arrivalLane="2o_0" arrivalPos="492.80" arrivalSpeed="11.52" duration="78.00" routeLength="995.90" waitingTime="1.00" waitingCount="1" stopTime="0.00" timeLoss="11.44" rerouteNo="0" devices="tripinfo_WE_2" vType="car" speedFactor="1.06" vaporized=""/>
    <tripinfo id="NS_6" depart="6.00" departLane="2i_0" departPos="4.10" departSpeed="0.00" departDelay="0.00" arrival="82.00" arrivalLane="1o_0" arrivalPos="492.80" arrivalSpeed="11.36" duration="76.00" routeLength="995.90" waitingTime="0.00" waitingCount="0" stopTime="0.00" timeLoss="10.83" rerouteNo="0" devices="tripinfo_NS_6" vType="car" speedFactor="1.08" vaporized=""/>
    <tripinfo id="EW_3" depart="3.00" departLane="4i_0" departPos="4.10" departSpeed="0.00" departDelay="0.00" arrival="86.00" arrivalLane="2o_0" arrivalPos="492.80" arrivalSpeed="11.04" duration="83.00" routeLength="995.70" waitingTime="0.00" waitingCount="0" stopTime="0.00" timeLoss="12.27" rerouteNo="0" devices="tripinfo_EW_3" vType="car" speedFactor="1.01" vaporized=""/>
    <tripinfo id="WE_7" depart="7.00" departLane="1i_0" departPos="4.10" departSpeed="0.00" departDelay="0.00" arrival="88.00" arrivalLane="4o_0" arrivalPos="492.80" arrivalSpeed="10.79" duration="81.00" routeLength="995.70" waitingTime="0.00" waitingCount="0" stopTime="0.00" timeLoss="11.85" rerouteNo="0" devices="tripinfo_WE_7" vType="car" speedFactor="1.03" vaporized=""/>
    <tripinfo id="WE_8" depart="9.00" departLane="1i_0" departPos="4.10" departSpeed="0.00" departDelay="1.00" arrival="90.00" arrivalLane="4o_0" arrivalPos="492.80" arrivalSpeed="10.42" duration="81.00" routeLength="995.70" waitingTime="0.00" waitingCount="0" stopTime="0.00" timeLoss="12.90" rerouteNo="0" devices="tripinfo_WE_8" vType="car" speedFactor="1.05" vaporized=""/>
    <tripinfo id="WE_38" depart="38.00" departLane="1i_0" departPos="4.10" departSpeed="0.00" departDelay="0.00" arrival="108.00" arrivalLane="3o_0" arrivalPos="492.80" arrivalSpeed="12.02" duration="70.00" routeLength="990.53" waitingTime="0.00" waitingCount="0" stopTime="0.00" timeLoss="7.22" rerouteNo="0" devices="tripinfo_WE_38" vType="car" speedFactor="1.12" vaporized=""/>
    <tripinfo id="WE_20" depart="20.00" departLane="1i_0" departPos="4.10" departSpeed="0.00" departDelay="0.00" arrival="111.00" arrivalLane="2o_0" arrivalPos="492.80" arrivalSpeed="8.57" duration="91.00" routeLength="995.90" waitingTime="0.00" waitingCount="0" stopTime="0.00" timeLoss="8.24" rerouteNo="0" devices="tripinfo_WE_20" vType="car" speedFactor="0.86" vaporized=""/>
    <tripinfo id="SN_2" depart="2.00" departLane="3i_0" departPos="10.10" departSpeed="0.00" departDelay="0.00" arrival="125.00" arrivalLane="2o_0" arrivalPos="492.80" arrivalSpeed="10.33" duration="123.00" routeLength="984.53" waitingTime="31.00" waitingCount="2" stopTime="0.00" timeLoss="50.55" rerouteNo="0" devices="tripinfo_SN_2" vType="truck" speedFactor="0.97" vaporized=""/>
    <tripinfo id="WE_51" depart="51.00" departLane="1i_0" departPos="4.10" departSpeed="0.00" departDelay="0.00" arrival="136.00" arrivalLane="4o_0" arrivalPos="492.80" arrivalSpeed="9.24" duration="85.00" routeLength="995.70" waitingTime="0.00" waitingCount="0" stopTime="0.00" timeLoss="9.12" rerouteNo="0" devices="tripinfo_WE_51" vType="car" speedFactor="0.94" vaporized=""/>
    <tripinfo id="SN_7" depart="7.00" departLane="3i_0" departPos="4.10" departSpeed="0.00" departDelay="0.00" arrival="137.00" arrivalLane="2o_0" arrivalPos="492.80" arrivalSpeed="8.24" duration="130.00" routeLength="990.53" waitingTime="29.00" waitingCount="2" stopTime="0.00" timeLoss="45.40" rerouteNo="0" devices="tripinfo_SN_7" vType="car" speedFactor="0.83" vaporized=""/>
    <tripinfo id="EW_23" depart="23.00" departLane="4i_0" departPos="4.10" departSpeed="0.00" departDelay="0.00" arrival="139.00" arrivalLane="2o_0" arrivalPos="492.80" arrivalSpeed="12.00" duration="116.00" routeLength="995.70" waitingTime="22.00" waitingCount="2" stopTime="0.00" timeLoss="50.66" rerouteNo="0" devices="tripinfo_EW_23" vType="car" speedFactor="1.09" vaporized=""/>
    <tripinfo id="NS_63" depart="63.00" departLane="2i_0" departPos="4.10" departSpeed="0.00" departDelay="0.00" arrival="145.00" arrivalLane="3o_0" arrivalPos="492.80" arrivalSpeed="10.77" duration="82.00" routeLength="995.70" waitingTime="0.00" waitingCount="0" stopTime="0.00" timeLoss="9.21" rerouteNo="0" devices="tripinfo_NS_63" vType="car" speedFactor="0.97" vaporized=""/>
    <tripinfo id="EW_30" depart="30.00" departLane="4i_0" departPos="4.10" departSpeed="0.00" departDelay="0.00" arrival="146.00" arrivalLane="1o_0" arrivalPos="492.80" arrivalSpeed="11.06" duration="116.00" routeLength="990.53" waitingTime="27.00" waitingCount="3" stopTime="0.00" timeLoss="47.37" rerouteNo="0" devices="tripinfo_EW_30" vType="car" speedFactor="1.03" vaporized=""/>
    <tripinfo id="WE_61" depart="61.00" departLane="1i_0" departPos="4.10" departSpeed="0.00" departDelay="0.00" arrival="147.00" arrivalLane="4o_0" arrivalPos="492.80" arrivalSpeed="11.00" duration="86.00" routeLength="995.70" waitingTime="0.00" waitingCount="0" stopTime="0.00" timeLoss="15.52" rerouteNo="0" devices="tripinfo_WE_61" vType="car" speedFactor="1.01" vaporized=""/>
    <tripinfo id="WE_76" depart="77.00" departLane="1i_0" departPos="4.10" departSpeed="0.00" departDelay="1.00" arrival="153.00" arrivalLane="2o_0" arrivalPos="492.80" arrivalSpeed="12.66" duration="76.00" routeLength="995.90" waitingTime="1.00" waitingCount="1" stopTime="0.00" timeLoss="15.44" rerouteNo="0" devices="tripinfo_WE_76" vType="car" speedFactor="1.18" vaporized=""/>
    <tripinfo id="NS_70" depart="70.00" departLane="2i_0" departPos="4.10" departSpeed="0.00" departDelay="0.00" arrival="156.00" arrivalLane="3o_0" arrivalPos="492.80" arrivalSpeed="9.30" duration="86.00" routeLength="995.70" waitingTime="0.00" waitingCount="0" stopTime="0.00" timeLoss="8.83" rerouteNo="0" devices="tripinfo_NS_70" vType="car" speedFactor="0.92" vaporized=""/>
    <tripinfo id="WE_75" depart="75.00" departLane="1i_0" departPos="4.10" departSpeed="0.00" departDelay="0.00" arrival="159.00" arrivalLane="3o_0" arrivalPos="492.80" arrivalSpeed="9.74" duration="84.00" routeLength="990.53" waitingTime="0.00" waitingCount="0" stopTime="0.00" timeLoss="7.70" rerouteNo="0" devices="tripinfo_WE_75" vType="car" speedFactor="0.93" vaporized=""/>
    <tripinfo id="SN_17" depart="17.00" departLane="3i_0" departPos="4.10" departSpeed="0.00" departDelay="0.00" arrival="161.00" arrivalLane="1o_0" arrivalPos="492.80" arrivalSpeed="10.20" duration="144.00" routeLength="995.70" waitingTime="44.00" waitingCount="3" stopTime="0.00" timeLoss="68.57" rerouteNo="0" devices="tripinfo_SN_17" vType="car" speedFactor="0.94" vaporized=""/>
    <tripinfo id="WE_78" depart="80.00" departLane="1i_0" departPos="4.10" departSpeed="0.00" departDelay="2.00" arrival="161.00" arrivalLane="3o_0" arrivalPos="492.80" arrivalSpeed="10.74" duration="81.00" routeLength="990.53" waitingTime="0.00" waitingCount="0" stopTime="0.00" timeLoss="10.12" rerouteNo="0" devices="tripinfo_WE_78" vType="car" speedFactor="1.01" vaporized=""/>
    <tripinfo id="SN_12" depart="12.00" departLane="3i_0" departPos="4.10" departSpeed="0.00" departDelay="0.00" arrival="162.00" arrivalLane="4o_0" arrivalPos="492.80" arrivalSpeed="9.43" duration="150.00" routeLength="995.90" waitingTime="48.00" waitingCount="3" stopTime="0.00" timeLoss="69.77" rerouteNo="0" devices="tripinfo_SN_12" vType="car" speedFactor="0.89" vaporized=""/>
    <tripinfo id="WE_93" depart="93.00" departLane="1i_0" departPos="4.10" departSpeed="0.00" departDelay="0.00" arrival="165.00" arrivalLane="2o_0" arrivalPos="492.80" arrivalSpeed="11.60" duration="72.00" routeLength="995.90" waitingTime="0.00" waitingCount="0" stopTime="0.00" timeLoss="7.89" rerouteNo="0" devices="tripinfo_WE_93" vType="car" speedFactor="1.10" vaporized=""/>
    <tripinfo id="NS_78" depart="78.00" departLane="2i_0" departPos="4.10" departSpeed="0.00" departDelay="0.00" arrival="166.00" arrivalLane="3o_0" arrivalPos="492.80" arrivalSpeed="12.36" duration="88.00" routeLength="995.70" waitingTime="14.00" waitingCount="1" stopTime="0.00" timeLoss="27.73" rerouteNo="0" devices="tripinfo_NS_78" vType="car" speedFactor="1.17" vaporized=""/>
    <tripinfo id="EW_31" depart="33.00" departLane="4i_0" departPos="4.10" departSpeed="0.00" departDelay="2.00" arrival="174.00" arrivalLane="3o_0" arrivalPos="492.80" arrivalSpeed="10.70" duration="141.00" routeLength="995.90" waitingTime="48.00" waitingCount="5" stopTime="0.00" timeLoss="73.25" rerouteNo="0" devices="tripinfo_EW_31" vType="car" speedFactor="1.05" vaporized=""/>
    <tripinfo id="SN_38" depart="38.00" departLane="3i_0" departPos="4.10" departSpeed="0.00" departDelay="0.00" arrival="180.00" arrivalLane="1o_0" arrivalPos="492.80" arrivalSpeed="10.66" duration="142.00" routeLength="995.70" waitingTime="38.00" waitingCount="5" stopTime="0.00" timeLoss="70.50" rerouteNo="0" devices="tripinfo_SN_38" vType="car" speedFactor="0.99" vaporized=""/>
    <tripinfo id="NS_91" depart="91.00" departLane="2i_0" departPos="4.10" departSpeed="0.00" departDelay="0.00" arrival="183.00" arrivalLane="1o_0" arrivalPos="492.80" arrivalSpeed="10.28" duration="92.00" routeLength="995.90" waitingTime="5.00" waitingCount="2" stopTime="0.00" timeLoss="19.21" rerouteNo="0" devices="tripinfo_NS_91" vType="car" speedFactor="0.97" vaporized=""/>
    <tripinfo id="WE_97" depart="97.00" departLane="1i_0" departPos="4.10" departSpeed="0.00" departDelay="0.00" arrival="188.00" arrivalLane="2o_0" arrivalPos="492.80" arrivalSpeed="9.33" duration="91.00" routeLength="995.90" waitingTime="1.00" waitingCount="1" stopTime="0.00" timeLoss="12.21" rerouteNo="0" devices="tripinfo_WE_97" vType="car" speedFactor="0.90" vaporized=""/>
    <tripinfo id="EW_43" depart="43.00" departLane="4i_0" departPos="10.10" departSpeed="0.00" departDelay="0.00" arrival="189.00" arrivalLane="3o_0" arrivalPos="492.80" arrivalSpeed="10.60" duration="146.00" routeLength="989.90" waitingTime="38.00" waitingCount="4" stopTime="0.00" timeLoss="72.59" rerouteNo="0" devices="tripinfo_EW_43" vType="truck" speedFactor="0.96" vaporized=""/>
    <tripinfo id="SN_50" depart="50.00" departLane="3i_0" departPos="10.10" departSpeed="0.00" departDelay="0.00" arrival="190.00" arrivalLane="2o_0" arrivalPos="492.80" arrivalSpeed="10.43" duration="140.00" routeLength="984.53" waitingTime="29.00" waitingCount="6" stopTime="0.00" timeLoss="68.04" rerouteNo="0" devices="tripinfo_SN_50" vType="truck" speedFactor="0.97" vaporized=""/>
    <tripinfo id="WE_98" depart="100.00" departLane="1i_0" departPos="4.10" departSpeed="0.00" departDelay="2.00" arrival="191.00" arrivalLane="3o_0" arrivalPos="492.80" arrivalSpeed="11.17" duration="91.00" routeLength="990.53" waitingTime="3.00" waitingCount="1" stopTime="0.00" timeLoss="22.62" rerouteNo="0" devices="tripinfo_WE_98" vType="car" speedFactor="1.03" vaporized=""/>
    <tripinfo id="SN_51" depart="54.00" departLane="3i_0" departPos="4.10" departSpeed="0.00" departDelay="3.00" arrival="192.00" arrivalLane="4o_0" arrivalPos="492.80" arrivalSpeed="12.57" duration="138.00" routeLength="995.90" waitingTime="26.00" waitingCount="7" stopTime="0.00" timeLoss="76.53" rerouteNo="0" devices="tripinfo_SN_51" vType="car" speedFactor="1.16" vaporized=""/>
    <tripinfo id="NS_103" depart="103.00" departLane="2i_0" departPos="4.10" departSpeed="0.00" departDelay="0.00" arrival="193.00" arrivalLane="3o_0" arrivalPos="492.80" arrivalSpeed="11.12" duration="90.00" routeLength="995.70" waitingTime="6.00" waitingCount="1" stopTime="0.00" timeLoss="24.81" rerouteNo="0" devices="tripinfo_NS_103" vType="car" speedFactor="1.09" vaporized=""/>
    <tripinfo id="NS_114" depart="114.00" departLane="2i_0" departPos="4.10" departSpeed="0.00" departDelay="0.00" arrival="198.00" arrivalLane="4o_0" arrivalPos="492.80" arrivalSpeed="11.40" duration="84.00" routeLength="990.53" waitingTime="3.00" waitingCount="2" stopTime="0.00" timeLoss="19.12" rerouteNo="0" devices="tripinfo_NS_114" vType="car" speedFactor="1.09" vaporized=""/>
    <tripinfo id="EW_49" depart="49.00" departLane="4i_0" departPos="4.10" departSpeed="0.00" departDelay="0.00" arrival="199.00" arrivalLane="2o_0" arrivalPos="492.80" arrivalSpeed="8.85" duration="150.00" routeLength="995.70" waitingTime="35.00" waitingCount="3" stopTime="0.00" timeLoss="69.22" rerouteNo="0" devices="tripinfo_EW_49" vType="car" speedFactor="0.88" vaporized=""/>
    <tripinfo id="EW_68" depart="68.00" departLane="4i_0" departPos="10.10" departSpeed="0.00" departDelay="0.00" arrival="204.00" arrivalLane="3o_0" arrivalPos="492.80" arrivalSpeed="9.95" duration="136.00" routeLength="989.90" waitingTime="23.00" waitingCount="3" stopTime="0.00" timeLoss="58.34" rerouteNo="0" devices="tripinfo_EW_68" vType="truck" speedFactor="0.91" vaporized=""/>
    <tripinfo id="WE_114" depart="114.00" departLane="1i_0" departPos="4.10" departSpeed="0.00" departDelay="0.00" arrival="205.00" arrivalLane="4o_0" arrivalPos="492.80" arrivalSpeed="10.48" duration="91.00" routeLength="995.70" waitingTime="9.00" waitingCount="2" stopTime="0.00" timeLoss="23.10" rerouteNo="0" devices="tripinfo_WE_114" vType="car" speedFactor="1.04" vaporized=""/>
    <tripinfo id="WE_137" depart="137.00" departLane="1i_0" departPos="4.10" departSpeed="0.00" departDelay="0.00" arrival="206.00" arrivalLane="2o_0" arrivalPos="492.80" arrivalSpeed="12.36" duration="69.00" routeLength="995.90" waitingTime="0.00" waitingCount="0" stopTime="0.00" timeLoss="8.30" rerouteNo="0" devices="tripinfo_WE_137" vType="car" speedFactor="1.17" vaporized=""/>
    <tripinfo id="SN_55" depart="58.00" departLane="3i_0" departPos="10.10" departSpeed="0.00" departDelay="3.00" arrival="210.00" arrivalLane="1o_0" arrivalPos="492.80" arrivalSpeed="10.63" duration="152.00" routeLength="989.70" waitingTime="27.00" waitingCount="7" stopTime="0.00" timeLoss="81.99" rerouteNo="0" devices="tripinfo_SN_55" vType="truck" speedFactor="1.01" vaporized=""/>
    <tripinfo id="EW_72" depart="77.00" departLane="4i_0" departPos="4.10" departSpeed="0.00" departDelay="5.00" arrival="222.00" arrivalLane="3o_0" arrivalPos="492.80" arrivalSpeed="12.42" duration="145.00" routeLength="995.90" waitingTime="29.00" waitingCount="4" stopTime="0.00" timeLoss="81.86" rerouteNo="0" devices="tripinfo_EW_72" vType="car" speedFactor="1.13" vaporized=""/>
    <tripinfo id="SN_67" depart="67.00" departLane="3i_0" departPos="4.10" departSpeed="0.00" departDelay="0.00" arrival="224.00" arrivalLane="4o_0" arrivalPos="492.80" arrivalSpeed="9.00" duration="157.00" routeLength="995.90" waitingTime="22.00" waitingCount="6" stopTime="0.00" timeLoss="77.07" rerouteNo="0" devices="tripinfo_SN_67" vType="car" speedFactor="0.89" vaporized=""/>
    <tripinfo id="EW_71" depart="73.00" departLane="4i_0" departPos="10.10" departSpeed="0.00" departDelay="2.00" arrival="225.00" arrivalLane="2o_0" arrivalPos="492.80" arrivalSpeed="10.45" duration="152.00" routeLength="989.70" waitingTime="33.00" waitingCount="5" stopTime="0.00" timeLoss="79.13" rerouteNo="0" devices="tripinfo_EW_71" vType="truck" speedFactor="0.97" vaporized=""/>
    <tripinfo id="NS_130" depart="130.00" departLane="2i_0" departPos="10.10" departSpeed="0.00" departDelay="0.00" arrival="226.00" arrivalLane="4o_0" arrivalPos="492.80" arrivalSpeed="10.27" duration="96.00" routeLength="984.53" waitingTime="2.00" waitingCount="1" stopTime="0.00" timeLoss="20.39" rerouteNo="0" devices="tripinfo_NS_130" vType="truck" speedFactor="0.93" vaporized=""/>
    <tripinfo id="NS_140" depart="140.00" departLane="2i_0" departPos="4.10" departSpeed="0.00" departDelay="0.00" arrival="229.00" arrivalLane="4o_0" arrivalPos="492.80" arrivalSpeed="11.02" duration="89.00" routeLength="990.53" waitingTime="0.00" waitingCount="0" stopTime="0.00" timeLoss="19.06" rerouteNo="0" devices="tripinfo_NS_140" vType="car" speedFactor="1.02" vaporized=""/>
    <tripinfo id="WE_146" depart="146.00" departLane="1i_0" departPos="4.10" departSpeed="0.00" departDelay="0.00" arrival="231.00" arrivalLane="3o_0" arrivalPos="492.80" arrivalSpeed="10.45" duration="85.00" routeLength="990.53" waitingTime="4.00" waitingCount="1" stopTime="0.00" timeLoss="14.28" rerouteNo="0" devices="tripinfo_WE_146" vType="car" speedFactor="1.00" vaporized=""/>
    <tripinfo id="WE_163" depart="163.00" departLane="1i_0" departPos="4.10" departSpeed="0.00" departDelay="0.00" arrival="235.00" arrivalLane="3o_0" arrivalPos="492.80" arrivalSpeed="12.30" duration="72.00" routeLength="990.53" waitingTime="0.00" waitingCount="0" stopTime="0.00" timeLoss="8.47" rerouteNo="0" devices="tripinfo_WE_163" vType="car" speedFactor="1.12" vaporized=""/>
    <tripinfo id="EW_77" depart="80.00" departLane="4i_0" departPos="4.10" departSpeed="0.00" departDelay="3.00" arrival="240.00" arrivalLane="3o_0" arrivalPos="492.80" arrivalSpeed="12.46" duration="160.00" routeLength="995.90" waitingTime="40.00" waitingCount="4" stopTime="0.00" timeLoss="98.21" rerouteNo="0" devices="tripinfo_EW_77" vType="car" speedFactor="1.15" vaporized=""/>
    <tripinfo id="NS_159" depart="159.00" departLane="2i_0" departPos="4.10" departSpeed="0.00" departDelay="0.00" arrival="240.00" arrivalLane="1o_0" arrivalPos="492.80" arrivalSpeed="10.67" duration="81.00" routeLength="995.90" waitingTime="0.00" waitingCount="0" stopTime="0.00" timeLoss="7.81" rerouteNo="0" devices="tripinfo_NS_159" vType="car" speedFactor="0.97" vaporized=""/>
    <tripinfo id="EW_108" depart="108.00" departLane="4i_0" departPos="4.10" departSpeed="0.00" departDelay="0.00" arrival="245.00" arrivalLane="1o_0" arrivalPos="492.80" arrivalSpeed="11.32" duration="137.00" routeLength="990.53" waitingTime="22.00" waitingCount="2" stopTime="0.00" timeLoss="69.08" rerouteNo="0" devices="tripinfo_EW_108" vType="car" speedFactor="1.04" vaporized=""/>
    <tripinfo id="SN_88" depart="88.00" departLane="3i_0" departPos="4.10" departSpeed="0.00" departDelay="0.00" arrival="250.00" arrivalLane="1o_0" arrivalPos="492.80" arrivalSpeed="10.30" duration="162.00" routeLength="995.70" waitingTime="38.00" waitingCount="4" stopTime="0.00" timeLoss="90.21" rerouteNo="0" devices="tripinfo_SN_88" vType="car" speedFactor="0.99" vaporized=""/>
    <tripinfo id="SN_69" depart="69.00" departLane="3i_0" departPos="4.10" departSpeed="0.00" departDelay="0.00" arrival="254.00" arrivalLane="4o_0" arrivalPos="492.80" arrivalSpeed="9.17" duration="185.00" routeLength="995.90" waitingTime="43.00" waitingCount="6" stopTime="0.00" timeLoss="103.53" rerouteNo="0" devices="tripinfo_SN_69" vType="car" speedFactor="0.87" vaporized=""/>
    <tripinfo id="WE_177" depart="177.00" departLane="1i_0" departPos="4.10" departSpeed="0.00" departDelay="0.00" arrival="254.00" arrivalLane="2o_0" arrivalPos="492.80" arrivalSpeed="11.35" duration="77.00" routeLength="995.90" waitingTime="0.00" waitingCount="0" stopTime="0.00" timeLoss="8.58" rerouteNo="0" devices="tripinfo_WE_177" vType="car" speedFactor="1.04" vaporized=""/>
    <tripinfo id="NS_177" depart="177.00" departLane="2i_0" departPos="4.10" departSpeed="0.00" departDelay="0.00" arrival="254.00" arrivalLane="1o_0" arrivalPos="492.80" arrivalSpeed="10.44" duration="77.00" routeLength="995.90" waitingTime="0.00" waitingCount="0" stopTime="0.00" timeLoss="7.77" rerouteNo="0" devices="tripinfo_NS_177" vType="car" speedFactor="1.02" vaporized=""/>
    <tripinfo id="NS_172" depart="172.00" departLane="2i_0" departPos="4.10" departSpeed="0.00" departDelay="0.00" arrival="256.00" arrivalLane="4o_0" arrivalPos="492.80" arrivalSpeed="9.12" duration="84.00" routeLength="990.53" waitingTime="0.00" waitingCount="0" stopTime="0.00" timeLoss="8.41" rerouteNo="0" devices="tripinfo_NS_172" vType="car" speedFactor="0.94" vaporized=""/>
    <tripinfo id="EW_142" depart="142.00" departLane="4i_0" departPos="4.10" departSpeed="0.00" departDelay="0.00" arrival="259.00" arrivalLane="3o_0" arrivalPos="492.80" arrivalSpeed="11.83" duration="117.00" routeLength="995.90" waitingTime="22.00" waitingCount="2" stopTime="0.00" timeLoss="51.98" rerouteNo="0" devices="tripinfo_EW_142" vType="car" speedFactor="1.10" vaporized=""/>
    <tripinfo id="SN_89" depart="91.00" departLane="3i_0" departPos="4.10" departSpeed="0.00" departDelay="2.00" arrival="262.00" arrivalLane="2o_0" arrivalPos="492.80" arrivalSpeed="10.13" duration="171.00" routeLength="990.53" waitingTime="44.00" waitingCount="6" stopTime="0.00" timeLoss="101.89" rerouteNo="0" devices="tripinfo_SN_89" vType="car" speedFactor="1.02" vaporized=""/>
    <tripinfo id="EW_146" depart="147.00" departLane="4i_0" departPos="4.10" departSpeed="0.00" departDelay="1.00" arrival="269.00" arrivalLane="3o_0" arrivalPos="492.80" arrivalSpeed="10.53" duration="122.00" routeLength="995.90" waitingTime="21.00" waitingCount="3" stopTime="0.00" timeLoss="51.08" rerouteNo="0" devices="tripinfo_EW_146" vType="car" speedFactor="1.00" vaporized=""/>
    <tripinfo id="WE_181" depart="181.00" departLane="1i_0" departPos="4.10" departSpeed="0.00" departDelay="0.00" arrival="269.00" arrivalLane="2o_0" arrivalPos="492.80" arrivalSpeed="10.39" duration="88.00" routeLength="995.90" waitingTime="2.00" waitingCount="1" stopTime="0.00" timeLoss="14.10" rerouteNo="0" devices="tripinfo_WE_181" vType="car" speedFactor="0.97" vaporized=""/>
    <tripinfo id="NS_194" depart="194.00" departLane="2i_0" departPos="4.10" departSpeed="0.00" departDelay="0.00" arrival="271.00" arrivalLane="4o_0" arrivalPos="492.80" arrivalSpeed="10.34" duration="77.00" routeLength="990.53" waitingTime="0.00" waitingCount="0" stopTime="0.00" timeLoss="8.67" rerouteNo="0" devices="tripinfo_NS_194" vType="car" speedFactor="1.03" vaporized=""/>
    <tripinfo id="SN_92" depart="94.00" departLane="3i_0" departPos="4.10" departSpeed="0.00" departDelay="2.00" arrival="275.00" arrivalLane="2o_0" arrivalPos="492.80" arrivalSpeed="12.11" duration="181.00" routeLength="990.53" waitingTime="58.00" waitingCount="7" stopTime="0.00" timeLoss="121.46" rerouteNo="0" devices="tripinfo_SN_92" vType="car" speedFactor="1.18" vaporized=""/>
    <tripinfo id="WE_194" depart="194.00" departLane="1i_0" departPos="4.10" departSpeed="0.00" departDelay="0.00" arrival="276.00" arrivalLane="4o_0" arrivalPos="492.80" arrivalSpeed="10.60" duration="82.00" routeLength="995.70" waitingTime="0.00" waitingCount="0" stopTime="0.00" timeLoss="10.01" rerouteNo="0" devices="tripinfo_WE_194" vType="car" speedFactor="0.98" vaporized=""/>
    <tripinfo id="WE_201" depart="201.00" departLane="1i_0" departPos="4.10" departSpeed="0.00" departDelay="0.00" arrival="281.00" arrivalLane="3o_0" arrivalPos="492.80" arrivalSpeed="10.77" duration="80.00" routeLength="990.53" waitingTime="0.00" waitingCount="0" stopTime="0.00" timeLoss="7.70" rerouteNo="0" devices="tripinfo_WE_201" vType="car" speedFactor="0.98" vaporized=""/>
    <tripinfo id="WE_204" depart="207.00" departLane="1i_0" departPos="4.10" departSpeed="0.00" departDelay="3.00" arrival="284.00" arrivalLane="4o_0" arrivalPos="492.80" arrivalSpeed="10.88" duration="77.00" routeLength="995.70" waitingTime="0.00" waitingCount="0" stopTime="0.00" timeLoss="12.06" rerouteNo="0" devices="tripinfo_WE_204" vType="car" speedFactor="1.09" vaporized=""/>
    <tripinfo id="WE_203" depart="203.00" departLane="1i_0" departPos="4.10" departSpeed="0.00" departDelay="0.00" arrival="285.00" arrivalLane="2o_0" arrivalPos="492.80" arrivalSpeed="9.90" duration="82.00" routeLength="995.90" waitingTime="1.00" waitingCount="1" stopTime="0.00" timeLoss="11.54" rerouteNo="0" devices="tripinfo_WE_203" vType="car" speedFactor="1.01" vaporized=""/>
    <tripinfo id="WE_206" depart="210.00" departLane="1i_0" departPos="4.10" departSpeed="0.00" departDelay="4.00" arrival="288.00" arrivalLane="2o_0" arrivalPos="492.80" arrivalSpeed="11.40" duration="78.00" routeLength="995.90" waitingTime="0.00" waitingCount="0" stopTime="0.00" timeLoss="9.25" rerouteNo="0" devices="tripinfo_WE_206" vType="car" speedFactor="1.03" vaporized=""/>
    <tripinfo id="EW_149" depart="150.00" departLane="4i_0" departPos="4.10" departSpeed="0.00" departDelay="1.00" arrival="289.00" arrivalLane="3o_0" arrivalPos="492.80" arrivalSpeed="8.99" duration="139.00" routeLength="995.90" waitingTime="31.00" waitingCount="3" stopTime="0.00" timeLoss="59.85" rerouteNo="0" devices="tripinfo_EW_149" vType="car" speedFactor="0.90" vaporized=""/>
    <tripinfo id="WE_222" depart="222.00" departLane="1i_0" departPos="4.10" departSpeed="0.00" departDelay="0.00" arrival="297.00" arrivalLane="3o_0" arrivalPos="492.80" arrivalSpeed="12.07" duration="75.00" routeLength="990.53" waitingTime="1.00" waitingCount="1" stopTime="0.00" timeLoss="13.36" rerouteNo="0" devices="tripinfo_WE_222" vType="car" speedFactor="1.15" vaporized=""/>
    <tripinfo id="EW_154" depart="154.00" departLane="4i_0" departPos="4.10" departSpeed="0.00" departDelay="0.00" arrival="298.00" arrivalLane="1o_0" arrivalPos="492.80" arrivalSpeed="10.39" duration="144.00" routeLength="990.53" waitingTime="39.00" waitingCount="4" stopTime="0.00" timeLoss="75.41" rerouteNo="0" devices="tripinfo_EW_154" vType="car" speedFactor="1.02" vaporized=""/>
    <tripinfo id="SN_98" depart="98.00" departLane="3i_0" departPos="4.10" departSpeed="0.00" departDelay="0.00" arrival="305.00" arrivalLane="1o_0" arrivalPos="492.80" arrivalSpeed="10.46" duration="207.00" routeLength="995.70" waitingTime="62.00" waitingCount="6" stopTime="0.00" timeLoss="132.65" rerouteNo="0" devices="tripinfo_SN_98" vType="car" speedFactor="0.96" vaporized=""/>
    <tripinfo id="EW_162" depart="162.00" departLane="4i_0" departPos="4.10" departSpeed="0.00" departDelay="0.00" arrival="310.00" arrivalLane="1o_0" arrivalPos="492.80" arrivalSpeed="11.97" duration="148.00" routeLength="990.53" waitingTime="45.00" waitingCount="5" stopTime="0.00" timeLoss="83.13" rerouteNo="0" devices="tripinfo_EW_162" vType="car" speedFactor="1.08" vaporized=""/>
    <tripinfo id="SN_118" depart="118.00" departLane="3i_0" departPos="4.10" departSpeed="0.00" departDelay="0.00" arrival="314.00" arrivalLane="2o_0" arrivalPos="492.80" arrivalSpeed="10.14" duration="196.00" routeLength="990.53" waitingTime="65.00" waitingCount="6" stopTime="0.00" timeLoss="125.11" rerouteNo="0" devices="tripinfo_SN_118" vType="car" speedFactor="1.00" vaporized=""/>
    <tripinfo id="EW_165" depart="165.00" departLane="4i_0" departPos="4.10" departSpeed="0.00" departDelay="0.00" arrival="318.00" arrivalLane="3o_0" arrivalPos="492.80" arrivalSpeed="10.97" duration="153.00" routeLength="995.90" waitingTime="39.00" waitingCount="5" stopTime="0.00" timeLoss="82.69" rerouteNo="0" devices="tripinfo_EW_165" vType="car" speedFactor="1.02" vaporized=""/>
    <tripinfo id="NS_239" depart="239.00" departLane="2i_0" departPos="4.10" departSpeed="0.00" departDelay="0.00" arrival="318.00" arrivalLane="4o_0" arrivalPos="492.80" arrivalSpeed="11.15" duration="79.00" routeLength="990.53" waitingTime="0.00" waitingCount="0" stopTime="0.00" timeLoss="8.26" rerouteNo="0" devices="tripinfo_NS_239" vType="car" speedFactor="1.01" vaporized=""/>
    <tripinfo id="SN_121" depart="121.00" departLane="3i_0" departPos="4.10" departSpeed="0.00" departDelay="0.00" arrival="327.00" arrivalLane="1o_0" arrivalPos="492.80" arrivalSpeed="9.99" duration="206.00" routeLength="995.70" waitingTime="63.00" waitingCount="7" stopTime="0.00" timeLoss="126.89" rerouteNo="0" devices="tripinfo_SN_121" vType="car" speedFactor="0.90" vaporized=""/>
    <tripinfo id="NS_247" depart="247.00" departLane="2i_0" departPos="4.10" departSpeed="0.00" departDelay="0.00" arrival="329.00" arrivalLane="3o_0" arrivalPos="492.80" arrivalSpeed="11.30" duration="82.00" routeLength="995.70" waitingTime="0.00" waitingCount="0" stopTime="0.00" timeLoss="12.39" rerouteNo="0" devices="tripinfo_NS_247" vType="car" speedFactor="1.02" vaporized=""/>
    <tripinfo id="EW_176" depart="176.00" departLane="4i_0" departPos="4.10" departSpeed="0.00" departDelay="0.00" arrival="332.00" arrivalLane="2o_0" arrivalPos="492.80" arrivalSpeed="9.89" duration="156.00" routeLength="995.70" waitingTime="34.00" waitingCount="5" stopTime="0.00" timeLoss="78.58" rerouteNo="0" devices="tripinfo_EW_176" vType="car" speedFactor="0.91" vaporized=""/>
    <tripinfo id="SN_124" depart="124.00" departLane="3i_0" departPos="4.10" departSpeed="0.00" departDelay="0.00" arrival="335.00" arrivalLane="1o_0" arrivalPos="492.80" arrivalSpeed="8.73" duration="211.00" routeLength="995.70" waitingTime="60.00" waitingCount="6" stopTime="0.00" timeLoss="130.08" rerouteNo="0" devices="tripinfo_SN_124" vType="car" speedFactor="0.88" vaporized=""/>
    <tripinfo id="NS_249" depart="250.00" departLane="2i_0" departPos="4.10" departSpeed="0.00" departDelay="1.00" arrival="339.00" arrivalLane="1o_0" arrivalPos="492.80" arrivalSpeed="8.96" duration="89.00" routeLength="995.90" waitingTime="0.00" waitingCount="0" stopTime="0.00" timeLoss="9.65" rerouteNo="0" devices="tripinfo_NS_249" vType="car" speedFactor="0.89" vaporized=""/>