<?xml version="1.0" encoding="UTF-8"?>

<!-- generated on 2024-05-05 16:50:19 by Eclipse SUMO sumo Version 1.19.0
<configuration xmlns:xsi="http://www.w3.org/2001/XMLSchema-instance" xsi:noNamespaceSchemaLocation="http://sumo.dlr.de/xsd/sumoConfiguration.xsd">

    <input>
        <net-file value="twoone.net.xml"/>
        <route-files value="route_gen.rou.xml"/>
    </input>

    <output>
        <tripinfo-output value="tripinfo_epi210.xml"/>
    </output>

    <report>
        <no-warnings value="true"/>
    </report>

    <traci_server>
        <remote-port value="58169"/>
    </traci_server>

</configuration>
-->

<tripinfos xmlns:xsi="http://www.w3.org/2001/XMLSchema-instance" xsi:noNamespaceSchemaLocation="http://sumo.dlr.de/xsd/tripinfo_file.xsd">
    <tripinfo id="WE_1" depart="1.00" departLane="1i_0" departPos="4.10" departSpeed="0.00" departDelay="0.00" arrival="75.00" arrivalLane="3o_0" arrivalPos="492.80" arrivalSpeed="11.61" duration="74.00" routeLength="990.53" waitingTime="0.00" waitingCount="0" stopTime="0.00" timeLoss="7.03" rerouteNo="0" devices="tripinfo_WE_1" vType="car" speedFactor="1.06" vaporized=""/>
    <tripinfo id="WE_4" depart="4.00" departLane="1i_0" departPos="4.10" departSpeed="0.00" departDelay="0.00" arrival="82.00" arrivalLane="2o_0" arrivalPos="492.80" arrivalSpeed="10.93" duration="78.00" routeLength="995.90" waitingTime="0.00" waitingCount="0" stopTime="0.00" timeLoss="7.22" rerouteNo="0" devices="tripinfo_WE_4" vType="car" speedFactor="1.01" vaporized=""/>
    <tripinfo id="SN_7" depart="7.00" departLane="3i_0" departPos="4.10" departSpeed="0.00" departDelay="0.00" arrival="83.00" arrivalLane="4o_0" arrivalPos="492.80" arrivalSpeed="11.13" duration="76.00" routeLength="995.90" waitingTime="0.00" waitingCount="0" stopTime="0.00" timeLoss="7.57" rerouteNo="0" devices="tripinfo_SN_7" vType="car" speedFactor="1.03" vaporized=""/>
    <tripinfo id="EW_1" depart="1.00" departLane="4i_0" departPos="4.10" departSpeed="0.00" departDelay="0.00" arrival="90.00" arrivalLane="2o_0" arrivalPos="492.80" arrivalSpeed="10.27" duration="89.00" routeLength="995.70" waitingTime="0.00" waitingCount="0" stopTime="0.00" timeLoss="13.79" rerouteNo="0" devices="tripinfo_EW_1" vType="car" speedFactor="0.94" vaporized=""/>
    <tripinfo id="EW_9" depart="9.00" departLane="4i_0" departPos="4.10" departSpeed="0.00" departDelay="0.00" arrival="90.00" arrivalLane="3o_0" arrivalPos="492.80" arrivalSpeed="11.10" duration="81.00" routeLength="995.90" waitingTime="0.00" waitingCount="0" stopTime="0.00" timeLoss="12.81" rerouteNo="0" devices="tripinfo_EW_9" vType="car" speedFactor="1.05" vaporized=""/>
    <tripinfo id="WE_5" depart="6.00" departLane="1i_0" departPos="4.10" departSpeed="0.00" departDelay="1.00" arrival="92.00" arrivalLane="2o_0" arrivalPos="492.80" arrivalSpeed="11.02" duration="86.00" routeLength="995.90" waitingTime="1.00" waitingCount="1" stopTime="0.00" timeLoss="20.54" rerouteNo="0" devices="tripinfo_WE_5" vType="car" speedFactor="1.08" vaporized=""/>
    <tripinfo id="NS_21" depart="21.00" departLane="2i_0" departPos="4.10" departSpeed="0.00" departDelay="0.00" arrival="94.00" arrivalLane="4o_0" arrivalPos="492.80" arrivalSpeed="11.99" duration="73.00" routeLength="990.53" waitingTime="0.00" waitingCount="0" stopTime="0.00" timeLoss="8.31" rerouteNo="0" devices="tripinfo_NS_21" vType="car" speedFactor="1.09" vaporized=""/>
    <tripinfo id="WE_15" depart="15.00" departLane="1i_0" departPos="4.10" departSpeed="0.00" departDelay="0.00" arrival="102.00" arrivalLane="3o_0" arrivalPos="492.80" arrivalSpeed="9.22" duration="87.00" routeLength="990.53" waitingTime="0.00" waitingCount="0" stopTime="0.00" timeLoss="11.76" rerouteNo="0" devices="tripinfo_WE_15" vType="car" speedFactor="0.94" vaporized=""/>
    <tripinfo id="SN_12" depart="12.00" departLane="3i_0" departPos="4.10" departSpeed="0.00" departDelay="0.00" arrival="103.00" arrivalLane="1o_0" arrivalPos="492.80" arrivalSpeed="8.82" duration="91.00" routeLength="995.70" waitingTime="0.00" waitingCount="0" stopTime="0.00" timeLoss="10.74" rerouteNo="0" devices="tripinfo_SN_12" vType="car" speedFactor="0.89" vaporized=""/>
    <tripinfo id="WE_9" depart="9.00" departLane="1i_0" departPos="4.10" departSpeed="0.00" departDelay="0.00" arrival="104.00" arrivalLane="2o_0" arrivalPos="492.80" arrivalSpeed="9.07" duration="95.00" routeLength="995.90" waitingTime="0.00" waitingCount="0" stopTime="0.00" timeLoss="9.62" rerouteNo="0" devices="tripinfo_WE_9" vType="car" speedFactor="0.83" vaporized=""/>
    <tripinfo id="WE_28" depart="28.00" departLane="1i_0" departPos="4.10" departSpeed="0.00" departDelay="0.00" arrival="104.00" arrivalLane="3o_0" arrivalPos="492.80" arrivalSpeed="11.51" duration="76.00" routeLength="990.53" waitingTime="0.00" waitingCount="0" stopTime="0.00" timeLoss="12.73" rerouteNo="0" devices="tripinfo_WE_28" vType="car" speedFactor="1.12" vaporized=""/>
    <tripinfo id="SN_27" depart="27.00" departLane="3i_0" departPos="4.10" departSpeed="0.00" departDelay="0.00" arrival="105.00" arrivalLane="1o_0" arrivalPos="492.80" arrivalSpeed="10.93" duration="78.00" routeLength="995.70" waitingTime="0.00" waitingCount="0" stopTime="0.00" timeLoss="10.47" rerouteNo="0" devices="tripinfo_SN_27" vType="car" speedFactor="1.05" vaporized=""/>
    <tripinfo id="WE_18" depart="18.00" departLane="1i_0" departPos="4.10" departSpeed="0.00" departDelay="0.00" arrival="110.00" arrivalLane="2o_0" arrivalPos="492.80" arrivalSpeed="9.29" duration="92.00" routeLength="995.90" waitingTime="0.00" waitingCount="0" stopTime="0.00" timeLoss="9.22" rerouteNo="0" devices="tripinfo_WE_18" vType="car" speedFactor="0.86" vaporized=""/>
    <tripinfo id="NS_23" depart="24.00" departLane="2i_0" departPos="10.10" departSpeed="0.00" departDelay="1.00" arrival="110.00" arrivalLane="4o_0" arrivalPos="492.80" arrivalSpeed="10.68" duration="86.00" routeLength="984.53" waitingTime="0.00" waitingCount="0" stopTime="0.00" timeLoss="16.93" rerouteNo="0" devices="tripinfo_NS_23" vType="truck" speedFactor="1.01" vaporized=""/>
    <tripinfo id="NS_28" depart="28.00" departLane="2i_0" departPos="4.10" departSpeed="0.00" departDelay="0.00" arrival="115.00" arrivalLane="4o_0" arrivalPos="492.80" arrivalSpeed="10.97" duration="87.00" routeLength="990.53" waitingTime="0.00" waitingCount="0" stopTime="0.00" timeLoss="15.84" rerouteNo="0" devices="tripinfo_NS_28" vType="car" speedFactor="0.99" vaporized=""/>
    <tripinfo id="EW_29" depart="29.00" departLane="4i_0" departPos="4.10" departSpeed="0.00" departDelay="0.00" arrival="116.00" arrivalLane="2o_0" arrivalPos="492.80" arrivalSpeed="9.98" duration="87.00" routeLength="995.70" waitingTime="0.00" waitingCount="0" stopTime="0.00" timeLoss="9.97" rerouteNo="0" devices="tripinfo_EW_29" vType="car" speedFactor="0.93" vaporized=""/>
    <tripinfo id="EW_35" depart="35.00" departLane="4i_0" departPos="4.10" departSpeed="0.00" departDelay="0.00" arrival="119.00" arrivalLane="1o_0" arrivalPos="492.80" arrivalSpeed="9.81" duration="84.00" routeLength="990.53" waitingTime="0.00" waitingCount="0" stopTime="0.00" timeLoss="8.79" rerouteNo="0" devices="tripinfo_EW_35" vType="car" speedFactor="0.94" vaporized=""/>
    <tripinfo id="NS_33" depart="33.00" departLane="2i_0" departPos="10.10" departSpeed="0.00" departDelay="0.00" arrival="121.00" arrivalLane="1o_0" arrivalPos="492.80" arrivalSpeed="10.25" duration="88.00" routeLength="989.90" waitingTime="0.00" waitingCount="0" stopTime="0.00" timeLoss="12.93" rerouteNo="0" devices="tripinfo_NS_33" vType="truck" speedFactor="0.94" vaporized=""/>
    <tripinfo id="EW_46" depart="46.00" departLane="4i_0" departPos="4.10" departSpeed="0.00" departDelay="0.00" arrival="123.00" arrivalLane="1o_0" arrivalPos="492.80" arrivalSpeed="12.74" duration="77.00" routeLength="990.53" waitingTime="0.00" waitingCount="0" stopTime="0.00" timeLoss="16.11" rerouteNo="0" devices="tripinfo_EW_46" vType="car" speedFactor="1.16" vaporized=""/>
    <tripinfo id="SN_39" depart="39.00" departLane="3i_0" departPos="10.10" departSpeed="0.00" departDelay="0.00" arrival="128.00" arrivalLane="2o_0" arrivalPos="492.80" arrivalSpeed="10.53" duration="89.00" routeLength="984.53" waitingTime="0.00" waitingCount="0" stopTime="0.00" timeLoss="16.64" rerouteNo="0" devices="tripinfo_SN_39" vType="truck" speedFactor="0.97" vaporized=""/>
    <tripinfo id="SN_50" depart="50.00" departLane="3i_0" departPos="4.10" departSpeed="0.00" departDelay="0.00" arrival="131.00" arrivalLane="2o_0" arrivalPos="492.80" arrivalSpeed="11.30" duration="81.00" routeLength="990.53" waitingTime="0.00" waitingCount="0" stopTime="0.00" timeLoss="11.03" rerouteNo="0" devices="tripinfo_SN_50" vType="car" speedFactor="1.02" vaporized=""/>
    <tripinfo id="SN_56" depart="56.00" departLane="3i_0" departPos="4.10" departSpeed="0.00" departDelay="0.00" arrival="136.00" arrivalLane="4o_0" arrivalPos="492.80" arrivalSpeed="10.38" duration="80.00" routeLength="995.90" waitingTime="0.00" waitingCount="0" stopTime="0.00" timeLoss="9.26" rerouteNo="0" devices="tripinfo_SN_56" vType="car" speedFactor="1.01" vaporized=""/>
    <tripinfo id="WE_58" depart="58.00" departLane="1i_0" departPos="4.10" departSpeed="0.00" departDelay="0.00" arrival="143.00" arrivalLane="2o_0" arrivalPos="492.80" arrivalSpeed="9.60" duration="85.00" routeLength="995.90" waitingTime="0.00" waitingCount="0" stopTime="0.00" timeLoss="12.16" rerouteNo="0" devices="tripinfo_WE_58" vType="car" speedFactor="0.97" vaporized=""/>
    <tripinfo id="WE_61" depart="61.00" departLane="1i_0" departPos="4.10" departSpeed="0.00" departDelay="0.00" arrival="150.00" arrivalLane="3o_0" arrivalPos="492.80" arrivalSpeed="8.65" duration="89.00" routeLength="990.53" waitingTime="0.00" waitingCount="0" stopTime="0.00" timeLoss="9.12" rerouteNo="0" devices="tripinfo_WE_61" vType="car" speedFactor="0.89" vaporized=""/>
    <tripinfo id="EW_64" depart="64.00" departLane="4i_0" departPos="4.10" departSpeed="0.00" departDelay="0.00" arrival="156.00" arrivalLane="2o_0" arrivalPos="492.80" arrivalSpeed="8.92" duration="92.00" routeLength="995.70" waitingTime="0.00" waitingCount="0" stopTime="0.00" timeLoss="10.99" rerouteNo="0" devices="tripinfo_EW_64" vType="car" speedFactor="0.87" vaporized=""/>
    <tripinfo id="NS_76" depart="76.00" departLane="2i_0" departPos="4.10" departSpeed="0.00" departDelay="0.00" arrival="161.00" arrivalLane="1o_0" arrivalPos="492.80" arrivalSpeed="10.16" duration="85.00" routeLength="995.90" waitingTime="0.00" waitingCount="0" stopTime="0.00" timeLoss="7.91" rerouteNo="0" devices="tripinfo_NS_76" vType="car" speedFactor="0.92" vaporized=""/>
    <tripinfo id="WE_62" depart="63.00" departLane="1i_0" departPos="4.10" departSpeed="0.00" departDelay="1.00" arrival="162.00" arrivalLane="3o_0" arrivalPos="492.80" arrivalSpeed="8.30" duration="99.00" routeLength="990.53" waitingTime="2.00" waitingCount="1" stopTime="0.00" timeLoss="13.45" rerouteNo="0" devices="tripinfo_WE_62" vType="car" speedFactor="0.83" vaporized=""/>
    <tripinfo id="NS_86" depart="86.00" departLane="2i_0" departPos="4.10" departSpeed="0.00" departDelay="0.00" arrival="164.00" arrivalLane="3o_0" arrivalPos="492.80" arrivalSpeed="12.04" duration="78.00" routeLength="995.70" waitingTime="0.00" waitingCount="0" stopTime="0.00" timeLoss="15.04" rerouteNo="0" devices="tripinfo_NS_86" vType="car" speedFactor="1.13" vaporized=""/>
    <tripinfo id="EW_90" depart="90.00" departLane="4i_0" departPos="4.10" departSpeed="0.00" departDelay="0.00" arrival="165.00" arrivalLane="2o_0" arrivalPos="492.80" arrivalSpeed="12.73" duration="75.00" routeLength="995.70" waitingTime="0.00" waitingCount="0" stopTime="0.00" timeLoss="13.44" rerouteNo="0" devices="tripinfo_EW_90" vType="car" speedFactor="1.15" vaporized=""/>
    <tripinfo id="SN_85" depart="85.00" departLane="3i_0" departPos="4.10" departSpeed="0.00" departDelay="0.00" arrival="171.00" arrivalLane="4o_0" arrivalPos="492.80" arrivalSpeed="10.51" duration="86.00" routeLength="995.90" waitingTime="0.00" waitingCount="0" stopTime="0.00" timeLoss="10.84" rerouteNo="0" devices="tripinfo_SN_85" vType="car" speedFactor="0.95" vaporized=""/>
    <tripinfo id="WE_95" depart="95.00" departLane="1i_0" departPos="4.10" departSpeed="0.00" departDelay="0.00" arrival="172.00" arrivalLane="4o_0" arrivalPos="492.80" arrivalSpeed="12.15" duration="77.00" routeLength="995.70" waitingTime="0.00" waitingCount="0" stopTime="0.00" timeLoss="16.61" rerouteNo="0" devices="tripinfo_WE_95" vType="car" speedFactor="1.17" vaporized=""/>
    <tripinfo id="EW_91" depart="92.00" departLane="4i_0" departPos="4.10" departSpeed="0.00" departDelay="1.00" arrival="176.00" arrivalLane="2o_0" arrivalPos="492.80" arrivalSpeed="10.04" duration="84.00" routeLength="995.70" waitingTime="1.00" waitingCount="1" stopTime="0.00" timeLoss="13.57" rerouteNo="0" devices="tripinfo_EW_91" vType="car" speedFactor="1.01" vaporized=""/>
    <tripinfo id="WE_97" depart="98.00" departLane="1i_0" departPos="4.10" departSpeed="0.00" departDelay="1.00" arrival="177.00" arrivalLane="3o_0" arrivalPos="492.80" arrivalSpeed="10.80" duration="79.00" routeLength="990.53" waitingTime="0.00" waitingCount="0" stopTime="0.00" timeLoss="7.97" rerouteNo="0" devices="tripinfo_WE_97" vType="car" speedFactor="0.99" vaporized=""/>
    <tripinfo id="WE_107" depart="107.00" departLane="1i_0" departPos="4.10" departSpeed="0.00" departDelay="0.00" arrival="188.00" arrivalLane="3o_0" arrivalPos="492.80" arrivalSpeed="10.40" duration="81.00" routeLength="990.53" waitingTime="0.00" waitingCount="0" stopTime="0.00" timeLoss="8.64" rerouteNo="0" devices="tripinfo_WE_107" vType="car" speedFactor="0.97" vaporized=""/>
    <tripinfo id="NS_121" depart="121.00" departLane="2i_0" departPos="4.10" departSpeed="0.00" departDelay="0.00" arrival="194.00" arrivalLane="4o_0" arrivalPos="492.80" arrivalSpeed="12.13" duration="73.00" routeLength="990.53" waitingTime="0.00" waitingCount="0" stopTime="0.00" timeLoss="7.95" rerouteNo="0" devices="tripinfo_NS_121" vType="car" speedFactor="1.09" vaporized=""/>
    <tripinfo id="SN_88" depart="90.00" departLane="3i_0" departPos="10.10" departSpeed="0.00" departDelay="2.00" arrival="210.00" arrivalLane="2o_0" arrivalPos="492.80" arrivalSpeed="10.15" duration="120.00" routeLength="984.53" waitingTime="30.00" waitingCount="1" stopTime="0.00" timeLoss="47.49" rerouteNo="0" devices="tripinfo_SN_88" vType="truck" speedFactor="0.97" vaporized=""/>
    <tripinfo id="SN_89" depart="94.00" departLane="3i_0" departPos="4.10" departSpeed="0.00" departDelay="5.00" arrival="211.00" arrivalLane="4o_0" arrivalPos="492.80" arrivalSpeed="12.98" duration="117.00" routeLength="995.90" waitingTime="29.00" waitingCount="2" stopTime="0.00" timeLoss="57.05" rerouteNo="0" devices="tripinfo_SN_89" vType="car" speedFactor="1.18" vaporized=""/>
    <tripinfo id="NS_128" depart="128.00" departLane="2i_0" departPos="10.10" departSpeed="0.00" departDelay="0.00" arrival="212.00" arrivalLane="3o_0" arrivalPos="492.80" arrivalSpeed="11.57" duration="84.00" routeLength="989.70" waitingTime="0.00" waitingCount="0" stopTime="0.00" timeLoss="15.66" rerouteNo="0" devices="tripinfo_NS_128" vType="truck" speedFactor="1.04" vaporized=""/>
    <tripinfo id="WE_128" depart="128.00" departLane="1i_0" departPos="4.10" departSpeed="0.00" departDelay="0.00" arrival="213.00" arrivalLane="2o_0" arrivalPos="492.80" arrivalSpeed="11.09" duration="85.00" routeLength="995.90" waitingTime="4.00" waitingCount="1" stopTime="0.00" timeLoss="16.22" rerouteNo="0" devices="tripinfo_WE_128" vType="car" speedFactor="1.04" vaporized=""/>
    <tripinfo id="EW_111" depart="111.00" departLane="4i_0" departPos="10.10" departSpeed="0.00" departDelay="0.00" arrival="215.00" arrivalLane="1o_0" arrivalPos="492.80" arrivalSpeed="11.27" duration="104.00" routeLength="984.53" waitingTime="14.00" waitingCount="2" stopTime="0.00" timeLoss="36.72" rerouteNo="0" devices="tripinfo_EW_111" vType="truck" speedFactor="1.05" vaporized=""/>
    <tripinfo id="SN_97" depart="97.00" departLane="3i_0" departPos="4.10" departSpeed="0.00" departDelay="0.00" arrival="222.00" arrivalLane="1o_0" arrivalPos="492.80" arrivalSpeed="11.27" duration="125.00" routeLength="995.70" waitingTime="27.00" waitingCount="2" stopTime="0.00" timeLoss="55.27" rerouteNo="0" devices="tripinfo_SN_97" vType="car" speedFactor="1.02" vaporized=""/>
    <tripinfo id="NS_135" depart="135.00" departLane="2i_0" departPos="10.10" departSpeed="0.00" departDelay="0.00" arrival="224.00" arrivalLane="4o_0" arrivalPos="492.80" arrivalSpeed="10.00" duration="89.00" routeLength="984.53" waitingTime="0.00" waitingCount="0" stopTime="0.00" timeLoss="12.40" rerouteNo="0" devices="tripinfo_NS_135" vType="truck" speedFactor="0.93" vaporized=""/>
    <tripinfo id="WE_135" depart="135.00" departLane="1i_0" departPos="4.10" departSpeed="0.00" departDelay="0.00" arrival="226.00" arrivalLane="3o_0" arrivalPos="492.80" arrivalSpeed="8.76" duration="91.00" routeLength="990.53" waitingTime="0.00" waitingCount="0" stopTime="0.00" timeLoss="12.56" rerouteNo="0" devices="tripinfo_WE_135" vType="car" speedFactor="0.90" vaporized=""/>
    <tripinfo id="EW_112" depart="115.00" departLane="4i_0" departPos="4.10" departSpeed="0.00" departDelay="3.00" arrival="227.00" arrivalLane="2o_0" arrivalPos="492.80" arrivalSpeed="9.36" duration="112.00" routeLength="995.70" waitingTime="9.00" waitingCount="2" stopTime="0.00" timeLoss="32.82" rerouteNo="0" devices="tripinfo_EW_112" vType="car" speedFactor="0.90" vaporized=""/>
    <tripinfo id="EW_114" depart="118.00" departLane="4i_0" departPos="4.10" departSpeed="0.00" departDelay="4.00" arrival="228.00" arrivalLane="3o_0" arrivalPos="492.80" arrivalSpeed="10.22" duration="110.00" routeLength="995.90" waitingTime="8.00" waitingCount="2" stopTime="0.00" timeLoss="40.75" rerouteNo="0" devices="tripinfo_EW_114" vType="car" speedFactor="1.03" vaporized=""/>
    <tripinfo id="WE_141" depart="141.00" departLane="1i_0" departPos="4.10" departSpeed="0.00" departDelay="0.00" arrival="228.00" arrivalLane="2o_0" arrivalPos="492.80" arrivalSpeed="11.97" duration="87.00" routeLength="995.90" waitingTime="1.00" waitingCount="1" stopTime="0.00" timeLoss="26.46" rerouteNo="0" devices="tripinfo_WE_141" vType="car" speedFactor="1.17" vaporized=""/>
    <tripinfo id="NS_155" depart="156.00" departLane="2i_0" departPos="4.10" departSpeed="0.00" departDelay="1.00" arrival="234.00" arrivalLane="4o_0" arrivalPos="492.80" arrivalSpeed="10.46" duration="78.00" routeLength="990.53" waitingTime="0.00" waitingCount="0" stopTime="0.00" timeLoss="8.60" rerouteNo="0" devices="tripinfo_NS_155" vType="car" speedFactor="1.02" vaporized=""/>
    <tripinfo id="WE_156" depart="156.00" departLane="1i_0" departPos="4.10" departSpeed="0.00" departDelay="0.00" arrival="236.00" arrivalLane="4o_0" arrivalPos="492.80" arrivalSpeed="11.00" duration="80.00" routeLength="995.70" waitingTime="0.00" waitingCount="0" stopTime="0.00" timeLoss="14.89" rerouteNo="0" devices="tripinfo_WE_156" vType="car" speedFactor="1.10" vaporized=""/>
    <tripinfo id="NS_139" depart="139.00" departLane="2i_0" departPos="4.10" departSpeed="0.00" departDelay="0.00" arrival="239.00" arrivalLane="3o_0" arrivalPos="492.80" arrivalSpeed="8.85" duration="100.00" routeLength="995.70" waitingTime="0.00" waitingCount="0" stopTime="0.00" timeLoss="16.74" rerouteNo="0" devices="tripinfo_NS_139" vType="car" speedFactor="0.85" vaporized=""/>
    <tripinfo id="SN_108" depart="108.00" departLane="3i_0" departPos="10.10" departSpeed="0.00" departDelay="0.00" arrival="242.00" arrivalLane="4o_0" arrivalPos="492.80" arrivalSpeed="11.93" duration="134.00" routeLength="989.90" waitingTime="31.00" waitingCount="4" stopTime="0.00" timeLoss="67.47" rerouteNo="0" devices="tripinfo_SN_108" vType="truck" speedFactor="1.09" vaporized=""/>
    <tripinfo id="EW_132" depart="132.00" departLane="4i_0" departPos="4.10" departSpeed="0.00" departDelay="0.00" arrival="243.00" arrivalLane="1o_0" arrivalPos="492.80" arrivalSpeed="10.86" duration="111.00" routeLength="990.53" waitingTime="15.00" waitingCount="2" stopTime="0.00" timeLoss="39.67" rerouteNo="0" devices="tripinfo_EW_132" vType="car" speedFactor="1.00" vaporized=""/>
    <tripinfo id="EW_163" depart="163.00" departLane="4i_0" departPos="4.10" departSpeed="0.00" departDelay="0.00" arrival="248.00" arrivalLane="1o_0" arrivalPos="492.80" arrivalSpeed="11.59" duration="85.00" routeLength="990.53" waitingTime="1.00" waitingCount="1" stopTime="0.00" timeLoss="22.81" rerouteNo="0" devices="tripinfo_EW_163" vType="car" speedFactor="1.14" vaporized=""/>
    <tripinfo id="NS_170" depart="170.00" departLane="2i_0" departPos="4.10" departSpeed="0.00" departDelay="0.00" arrival="248.00" arrivalLane="4o_0" arrivalPos="492.80" arrivalSpeed="10.38" duration="78.00" routeLength="990.53" waitingTime="0.00" waitingCount="0" stopTime="0.00" timeLoss="8.35" rerouteNo="0" devices="tripinfo_NS_170" vType="car" speedFactor="1.02" vaporized=""/>
    <tripinfo id="SN_119" depart="119.00" departLane="3i_0" departPos="4.10" departSpeed="0.00" departDelay="0.00" arrival="249.00" arrivalLane="2o_0" arrivalPos="492.80" arrivalSpeed="10.51" duration="130.00" routeLength="990.53" waitingTime="23.00" waitingCount="2" stopTime="0.00" timeLoss="56.52" rerouteNo="0" devices="tripinfo_SN_119" vType="car" speedFactor="0.96" vaporized=""/>
    <tripinfo id="WE_161" depart="161.00" departLane="1i_0" departPos="4.10" departSpeed="0.00" departDelay="0.00" arrival="254.00" arrivalLane="4o_0" arrivalPos="492.80" arrivalSpeed="10.04" duration="93.00" routeLength="995.70" waitingTime="8.00" waitingCount="1" stopTime="0.00" timeLoss="21.91" rerouteNo="0" devices="tripinfo_WE_161" vType="car" speedFactor="1.00" vaporized=""/>
    <tripinfo id="EW_135" depart="136.00" departLane="4i_0" departPos="4.10" departSpeed="0.00" departDelay="1.00" arrival="257.00" arrivalLane="2o_0" arrivalPos="492.80" arrivalSpeed="9.68" duration="121.00" routeLength="995.70" waitingTime="10.00" waitingCount="1" stopTime="0.00" timeLoss="40.17" rerouteNo="0" devices="tripinfo_EW_135" vType="car" speedFactor="0.88" vaporized=""/>
    <tripinfo id="NS_179" depart="179.00" departLane="2i_0" departPos="4.10" departSpeed="0.00" departDelay="0.00" arrival="259.00" arrivalLane="4o_0" arrivalPos="492.80" arrivalSpeed="10.10" duration="80.00" routeLength="990.53" waitingTime="0.00" waitingCount="0" stopTime="0.00" timeLoss="8.49" rerouteNo="0" devices="tripinfo_NS_179" vType="car" speedFactor="0.99" vaporized=""/>
    <tripinfo id="WE_188" depart="188.00" departLane="1i_0" departPos="4.10" departSpeed="0.00" departDelay="0.00" arrival="266.00" arrivalLane="2o_0" arrivalPos="492.80" arrivalSpeed="11.30" duration="78.00" routeLength="995.90" waitingTime="0.00" waitingCount="0" stopTime="0.00" timeLoss="8.33" rerouteNo="0" devices="tripinfo_WE_188" vType="car" speedFactor="1.02" vaporized=""/>
    <tripinfo id="WE_182" depart="182.00" departLane="1i_0" departPos="4.10" departSpeed="0.00" departDelay="0.00" arrival="268.00" arrivalLane="3o_0" arrivalPos="492.80" arrivalSpeed="8.83" duration="86.00" routeLength="990.53" waitingTime="0.00" waitingCount="0" stopTime="0.00" timeLoss="8.37" rerouteNo="0" devices="tripinfo_WE_182" vType="car" speedFactor="0.91" vaporized=""/>
    <tripinfo id="NS_185" depart="185.00" departLane="2i_0" departPos="4.10" departSpeed="0.00" departDelay="0.00" arrival="270.00" arrivalLane="1o_0" arrivalPos="492.80" arrivalSpeed="9.76" duration="85.00" routeLength="995.90" waitingTime="0.00" waitingCount="0" stopTime="0.00" timeLoss="7.84" rerouteNo="0" devices="tripinfo_NS_185" vType="car" speedFactor="0.91" vaporized=""/>
    <tripinfo id="NS_186" depart="188.00" departLane="2i_0" departPos="4.10" departSpeed="0.00" departDelay="2.00" arrival="272.00" arrivalLane="3o_0" arrivalPos="492.80" arrivalSpeed="10.10" duration="84.00" routeLength="995.70" waitingTime="1.00" waitingCount="1" stopTime="0.00" timeLoss="14.67" rerouteNo="0" devices="tripinfo_NS_186" vType="car" speedFactor="1.02" vaporized=""/>
    <tripinfo id="WE_189" depart="191.00" departLane="1i_0" departPos="4.10" departSpeed="0.00" departDelay="2.00" arrival="272.00" arrivalLane="2o_0" arrivalPos="492.80" arrivalSpeed="10.46" duration="81.00" routeLength="995.90" waitingTime="0.00" waitingCount="0" stopTime="0.00" timeLoss="8.12" rerouteNo="0" devices="tripinfo_WE_189" vType="car" speedFactor="0.97" vaporized=""/>
    <tripinfo id="SN_124" depart="124.00" departLane="3i_0" departPos="4.10" departSpeed="0.00" departDelay="0.00" arrival="276.00" arrivalLane="4o_0" arrivalPos="492.80" arrivalSpeed="10.99" duration="152.00" routeLength="995.90" waitingTime="42.00" waitingCount="4" stopTime="0.00" timeLoss="83.18" rerouteNo="0" devices="tripinfo_SN_124" vType="car" speedFactor="1.04" vaporized=""/>
    <tripinfo id="NS_194" depart="194.00" departLane="2i_0" departPos="4.10" departSpeed="0.00" departDelay="0.00" arrival="277.00" arrivalLane="4o_0" arrivalPos="492.80" arrivalSpeed="10.76" duration="83.00" routeLength="990.53" waitingTime="1.00" waitingCount="1" stopTime="0.00" timeLoss="16.45" rerouteNo="0" devices="tripinfo_NS_194" vType="car" speedFactor="1.06" vaporized=""/>
    <tripinfo id="EW_164" depart="166.00" departLane="4i_0" departPos="4.10" departSpeed="0.00" departDelay="2.00" arrival="281.00" arrivalLane="3o_0" arrivalPos="492.80" arrivalSpeed="10.22" duration="115.00" routeLength="995.90" waitingTime="22.00" waitingCount="2" stopTime="0.00" timeLoss="45.65" rerouteNo="0" devices="tripinfo_EW_164" vType="car" speedFactor="1.02" vaporized=""/>
    <tripinfo id="EW_165" depart="172.00" departLane="4i_0" departPos="4.10" departSpeed="0.00" departDelay="7.00" arrival="281.00" arrivalLane="1o_0" arrivalPos="492.80" arrivalSpeed="11.62" duration="109.00" routeLength="990.53" waitingTime="22.00" waitingCount="2" stopTime="0.00" timeLoss="43.88" rerouteNo="0" devices="tripinfo_EW_165" vType="car" speedFactor="1.08" vaporized=""/>
    <tripinfo id="WE_198" depart="198.00" departLane="1i_0" departPos="4.10" departSpeed="0.00" departDelay="0.00" arrival="281.00" arrivalLane="2o_0" arrivalPos="492.80" arrivalSpeed="10.42" duration="83.00" routeLength="995.90" waitingTime="0.00" waitingCount="0" stopTime="0.00" timeLoss="8.85" rerouteNo="0" devices="tripinfo_WE_198" vType="car" speedFactor="0.96" vaporized=""/>
    <tripinfo id="SN_157" depart="157.00" departLane="3i_0" departPos="4.10" departSpeed="0.00" departDelay="0.00" arrival="283.00" arrivalLane="2o_0" arrivalPos="492.80" arrivalSpeed="10.57" duration="126.00" routeLength="990.53" waitingTime="24.00" waitingCount="3" stopTime="0.00" timeLoss="55.52" rerouteNo="0" devices="tripinfo_SN_157" vType="car" speedFactor="1.00" vaporized=""/>
    <tripinfo id="WE_206" depart="206.00" departLane="1i_0" departPos="4.10" departSpeed="0.00" departDelay="0.00" arrival="285.00" arrivalLane="3o_0" arrivalPos="492.80" arrivalSpeed="11.41" duration="79.00" routeLength="990.53" waitingTime="0.00" waitingCount="0" stopTime="0.00" timeLoss="10.35" rerouteNo="0" devices="tripinfo_WE_206" vType="car" speedFactor="1.03" vaporized=""/>
    <tripinfo id="EW_168" depart="175.00" departLane="4i_0" departPos="4.10" departSpeed="0.00" departDelay="7.00" arrival="287.00" arrivalLane="3o_0" arrivalPos="492.80" arrivalSpeed="11.33" duration="112.00" routeLength="995.90" waitingTime="22.00" waitingCount="3" stopTime="0.00" timeLoss="48.22" rerouteNo="0" devices="tripinfo_EW_168" vType="car" speedFactor="1.12" vaporized=""/>
    <tripinfo id="SN_162" depart="162.00" departLane="3i_0" departPos="4.10" departSpeed="0.00" departDelay="0.00" arrival="291.00" arrivalLane="2o_0" arrivalPos="492.80" arrivalSpeed="9.47" duration="129.00" routeLength="990.53" waitingTime="17.00" waitingCount="1" stopTime="0.00" timeLoss="50.03" rerouteNo="0" devices="tripinfo_SN_162" vType="car" speedFactor="0.90" vaporized=""/>
    <tripinfo id="NS_209" depart="210.00" departLane="2i_0" departPos="4.10" departSpeed="0.00" departDelay="1.00" arrival="292.00" arrivalLane="4o_0" arrivalPos="492.80" arrivalSpeed="10.28" duration="82.00" routeLength="990.53" waitingTime="1.00" waitingCount="1" stopTime="0.00" timeLoss="9.91" rerouteNo="0" devices="tripinfo_NS_209" vType="car" speedFactor="0.98" vaporized=""/>
    <tripinfo id="SN_164" depart="165.00" departLane="3i_0" departPos="4.10" departSpeed="0.00" departDelay="1.00" arrival="296.00" arrivalLane="1o_0" arrivalPos="492.80" arrivalSpeed="10.08" duration="131.00" routeLength="995.70" waitingTime="21.00" waitingCount="3" stopTime="0.00" timeLoss="58.09" rerouteNo="0" devices="tripinfo_SN_164" vType="car" speedFactor="0.97" vaporized=""/>
    <tripinfo id="NS_212" depart="213.00" departLane="2i_0" departPos="4.10" departSpeed="0.00" departDelay="1.00" arrival="297.00" arrivalLane="3o_0" arrivalPos="492.80" arrivalSpeed="11.15" duration="84.00" routeLength="995.70" waitingTime="1.00" waitingCount="1" stopTime="0.00" timeLoss="13.59" rerouteNo="0" devices="tripinfo_NS_212" vType="car" speedFactor="1.01" vaporized=""/>
    <tripinfo id="WE_217" depart="217.00" departLane="1i_0" departPos="10.10" departSpeed="0.00" departDelay="0.00" arrival="301.00" arrivalLane="3o_0" arrivalPos="492.80" arrivalSpeed="10.61" duration="84.00" routeLength="984.53" waitingTime="0.00" waitingCount="0" stopTime="0.00" timeLoss="14.50" rerouteNo="0" devices="tripinfo_WE_217" vType="truck" speedFactor="1.01" vaporized=""/>
    <tripinfo id="NS_216" depart="216.00" departLane="2i_0" departPos="4.10" departSpeed="0.00" departDelay="0.00" arrival="304.00" arrivalLane="1o_0" arrivalPos="492.80" arrivalSpeed="10.27" duration="88.00" routeLength="995.90" waitingTime="2.00" waitingCount="1" stopTime="0.00" timeLoss="17.01" rerouteNo="0" devices="tripinfo_NS_216" vType="car" speedFactor="1.00" vaporized=""/>