<?xml version="1.0" encoding="UTF-8"?>

<!-- generated on 2024-05-05 16:38:44 by Eclipse SUMO sumo Version 1.19.0
<configuration xmlns:xsi="http://www.w3.org/2001/XMLSchema-instance" xsi:noNamespaceSchemaLocation="http://sumo.dlr.de/xsd/sumoConfiguration.xsd">

    <input>
        <net-file value="twoone.net.xml"/>
        <route-files value="route_gen.rou.xml"/>
    </input>

    <output>
        <tripinfo-output value="tripinfo_epi182.xml"/>
    </output>

    <report>
        <no-warnings value="true"/>
    </report>

    <traci_server>
        <remote-port value="39309"/>
    </traci_server>

</configuration>
-->

<tripinfos xmlns:xsi="http://www.w3.org/2001/XMLSchema-instance" xsi:noNamespaceSchemaLocation="http://sumo.dlr.de/xsd/tripinfo_file.xsd">
    <tripinfo id="WE_0" depart="0.00" departLane="1i_0" departPos="10.10" departSpeed="0.00" departDelay="0.00" arrival="88.00" arrivalLane="4o_0" arrivalPos="492.80" arrivalSpeed="11.15" duration="88.00" routeLength="989.70" waitingTime="0.00" waitingCount="0" stopTime="0.00" timeLoss="18.95" rerouteNo="0" devices="tripinfo_WE_0" vType="truck" speedFactor="1.03" vaporized=""/>
    <tripinfo id="WE_14" depart="14.00" departLane="1i_0" departPos="4.10" departSpeed="0.00" departDelay="0.00" arrival="98.00" arrivalLane="2o_0" arrivalPos="492.80" arrivalSpeed="9.43" duration="84.00" routeLength="995.90" waitingTime="0.00" waitingCount="0" stopTime="0.00" timeLoss="8.05" rerouteNo="0" devices="tripinfo_WE_14" vType="car" speedFactor="0.94" vaporized=""/>
    <tripinfo id="WE_20" depart="20.00" departLane="1i_0" departPos="4.10" departSpeed="0.00" departDelay="0.00" arrival="99.00" arrivalLane="2o_0" arrivalPos="492.80" arrivalSpeed="11.20" duration="79.00" routeLength="995.90" waitingTime="0.00" waitingCount="0" stopTime="0.00" timeLoss="9.04" rerouteNo="0" devices="tripinfo_WE_20" vType="car" speedFactor="1.01" vaporized=""/>
    <tripinfo id="WE_28" depart="28.00" departLane="1i_0" departPos="4.10" departSpeed="0.00" departDelay="0.00" arrival="107.00" arrivalLane="4o_0" arrivalPos="492.80" arrivalSpeed="11.41" duration="79.00" routeLength="995.70" waitingTime="0.00" waitingCount="0" stopTime="0.00" timeLoss="13.70" rerouteNo="0" devices="tripinfo_WE_28" vType="car" speedFactor="1.08" vaporized=""/>
    <tripinfo id="NS_30" depart="30.00" departLane="2i_0" departPos="4.10" departSpeed="0.00" departDelay="0.00" arrival="110.00" arrivalLane="3o_0" arrivalPos="492.80" arrivalSpeed="11.22" duration="80.00" routeLength="995.70" waitingTime="0.00" waitingCount="0" stopTime="0.00" timeLoss="10.67" rerouteNo="0" devices="tripinfo_NS_30" vType="car" speedFactor="1.03" vaporized=""/>
    <tripinfo id="EW_31" depart="31.00" departLane="4i_0" departPos="4.10" departSpeed="0.00" departDelay="0.00" arrival="112.00" arrivalLane="2o_0" arrivalPos="492.80" arrivalSpeed="11.01" duration="81.00" routeLength="995.70" waitingTime="0.00" waitingCount="0" stopTime="0.00" timeLoss="13.26" rerouteNo="0" devices="tripinfo_EW_31" vType="car" speedFactor="1.05" vaporized=""/>
    <tripinfo id="EW_41" depart="41.00" departLane="4i_0" departPos="4.10" departSpeed="0.00" departDelay="0.00" arrival="118.00" arrivalLane="3o_0" arrivalPos="492.80" arrivalSpeed="11.32" duration="77.00" routeLength="995.90" waitingTime="0.00" waitingCount="0" stopTime="0.00" timeLoss="7.48" rerouteNo="0" devices="tripinfo_EW_41" vType="car" speedFactor="1.03" vaporized=""/>
    <tripinfo id="WE_31" depart="31.00" departLane="1i_0" departPos="10.10" departSpeed="0.00" departDelay="0.00" arrival="127.00" arrivalLane="2o_0" arrivalPos="492.80" arrivalSpeed="9.68" duration="96.00" routeLength="989.90" waitingTime="1.00" waitingCount="1" stopTime="0.00" timeLoss="19.16" rerouteNo="0" devices="tripinfo_WE_31" vType="truck" speedFactor="0.92" vaporized=""/>
    <tripinfo id="NS_37" depart="37.00" departLane="2i_0" departPos="4.10" departSpeed="0.00" departDelay="0.00" arrival="128.00" arrivalLane="1o_0" arrivalPos="492.80" arrivalSpeed="9.58" duration="91.00" routeLength="995.90" waitingTime="0.00" waitingCount="0" stopTime="0.00" timeLoss="10.84" rerouteNo="0" devices="tripinfo_NS_37" vType="car" speedFactor="0.89" vaporized=""/>
    <tripinfo id="WE_39" depart="39.00" departLane="1i_0" departPos="4.10" departSpeed="0.00" departDelay="0.00" arrival="131.00" arrivalLane="3o_0" arrivalPos="492.80" arrivalSpeed="9.70" duration="92.00" routeLength="990.53" waitingTime="0.00" waitingCount="0" stopTime="0.00" timeLoss="16.42" rerouteNo="0" devices="tripinfo_WE_39" vType="car" speedFactor="0.94" vaporized=""/>
    <tripinfo id="NS_40" depart="43.00" departLane="2i_0" departPos="10.10" departSpeed="0.00" departDelay="3.00" arrival="136.00" arrivalLane="4o_0" arrivalPos="492.80" arrivalSpeed="11.23" duration="93.00" routeLength="984.53" waitingTime="1.00" waitingCount="1" stopTime="0.00" timeLoss="24.91" rerouteNo="0" devices="tripinfo_NS_40" vType="truck" speedFactor="1.05" vaporized=""/>
    <tripinfo id="SN_63" depart="63.00" departLane="3i_0" departPos="4.10" departSpeed="0.00" departDelay="0.00" arrival="138.00" arrivalLane="4o_0" arrivalPos="492.80" arrivalSpeed="11.56" duration="75.00" routeLength="995.90" waitingTime="0.00" waitingCount="0" stopTime="0.00" timeLoss="11.49" rerouteNo="0" devices="tripinfo_SN_63" vType="car" speedFactor="1.12" vaporized=""/>
    <tripinfo id="NS_39" depart="39.00" departLane="2i_0" departPos="4.10" departSpeed="0.00" departDelay="0.00" arrival="139.00" arrivalLane="3o_0" arrivalPos="492.80" arrivalSpeed="9.41" duration="100.00" routeLength="995.70" waitingTime="3.00" waitingCount="1" stopTime="0.00" timeLoss="16.74" rerouteNo="0" devices="tripinfo_NS_39" vType="car" speedFactor="0.86" vaporized=""/>
    <tripinfo id="NS_46" depart="47.00" departLane="2i_0" departPos="4.10" departSpeed="0.00" departDelay="1.00" arrival="143.00" arrivalLane="1o_0" arrivalPos="492.80" arrivalSpeed="11.17" duration="96.00" routeLength="995.90" waitingTime="1.00" waitingCount="1" stopTime="0.00" timeLoss="27.68" rerouteNo="0" devices="tripinfo_NS_46" vType="car" speedFactor="1.05" vaporized=""/>
    <tripinfo id="NS_67" depart="67.00" departLane="2i_0" departPos="4.10" departSpeed="0.00" departDelay="0.00" arrival="157.00" arrivalLane="1o_0" arrivalPos="492.80" arrivalSpeed="9.06" duration="90.00" routeLength="995.90" waitingTime="0.00" waitingCount="0" stopTime="0.00" timeLoss="8.64" rerouteNo="0" devices="tripinfo_NS_67" vType="car" speedFactor="0.88" vaporized=""/>
    <tripinfo id="SN_66" depart="66.00" departLane="3i_0" departPos="4.10" departSpeed="0.00" departDelay="0.00" arrival="158.00" arrivalLane="1o_0" arrivalPos="492.80" arrivalSpeed="10.49" duration="92.00" routeLength="995.70" waitingTime="6.00" waitingCount="2" stopTime="0.00" timeLoss="20.73" rerouteNo="0" devices="tripinfo_SN_66" vType="car" speedFactor="0.99" vaporized=""/>
    <tripinfo id="WE_67" depart="67.00" departLane="1i_0" departPos="4.10" departSpeed="0.00" departDelay="0.00" arrival="158.00" arrivalLane="4o_0" arrivalPos="492.80" arrivalSpeed="9.14" duration="91.00" routeLength="995.70" waitingTime="2.00" waitingCount="1" stopTime="0.00" timeLoss="14.47" rerouteNo="0" devices="tripinfo_WE_67" vType="car" speedFactor="0.93" vaporized=""/>
    <tripinfo id="NS_75" depart="75.00" departLane="2i_0" departPos="4.10" departSpeed="0.00" departDelay="0.00" arrival="160.00" arrivalLane="4o_0" arrivalPos="492.80" arrivalSpeed="10.08" duration="85.00" routeLength="990.53" waitingTime="0.00" waitingCount="0" stopTime="0.00" timeLoss="9.33" rerouteNo="0" devices="tripinfo_NS_75" vType="car" speedFactor="0.94" vaporized=""/>
    <tripinfo id="EW_80" depart="80.00" departLane="4i_0" departPos="4.10" departSpeed="0.00" departDelay="0.00" arrival="160.00" arrivalLane="1o_0" arrivalPos="492.80" arrivalSpeed="10.28" duration="80.00" routeLength="990.53" waitingTime="0.00" waitingCount="0" stopTime="0.00" timeLoss="10.69" rerouteNo="0" devices="tripinfo_EW_80" vType="car" speedFactor="1.02" vaporized=""/>
    <tripinfo id="WE_79" depart="79.00" departLane="1i_0" departPos="4.10" departSpeed="0.00" departDelay="0.00" arrival="162.00" arrivalLane="4o_0" arrivalPos="492.80" arrivalSpeed="12.78" duration="83.00" routeLength="995.70" waitingTime="0.00" waitingCount="0" stopTime="0.00" timeLoss="21.27" rerouteNo="0" devices="tripinfo_WE_79" vType="car" speedFactor="1.16" vaporized=""/>
    <tripinfo id="SN_73" depart="73.00" departLane="3i_0" departPos="4.10" departSpeed="0.00" departDelay="0.00" arrival="165.00" arrivalLane="4o_0" arrivalPos="492.80" arrivalSpeed="9.57" duration="92.00" routeLength="995.90" waitingTime="0.00" waitingCount="0" stopTime="0.00" timeLoss="16.76" rerouteNo="0" devices="tripinfo_SN_73" vType="car" speedFactor="0.94" vaporized=""/>
    <tripinfo id="WE_86" depart="86.00" departLane="1i_0" departPos="4.10" departSpeed="0.00" departDelay="0.00" arrival="165.00" arrivalLane="3o_0" arrivalPos="492.80" arrivalSpeed="10.81" duration="79.00" routeLength="990.53" waitingTime="0.00" waitingCount="0" stopTime="0.00" timeLoss="9.39" rerouteNo="0" devices="tripinfo_WE_86" vType="car" speedFactor="1.01" vaporized=""/>
    <tripinfo id="WE_88" depart="89.00" departLane="1i_0" departPos="4.10" departSpeed="0.00" departDelay="1.00" arrival="171.00" arrivalLane="4o_0" arrivalPos="492.80" arrivalSpeed="9.63" duration="82.00" routeLength="995.70" waitingTime="0.00" waitingCount="0" stopTime="0.00" timeLoss="9.61" rerouteNo="0" devices="tripinfo_WE_88" vType="car" speedFactor="0.97" vaporized=""/>
    <tripinfo id="SN_97" depart="97.00" departLane="3i_0" departPos="10.10" departSpeed="0.00" departDelay="0.00" arrival="185.00" arrivalLane="4o_0" arrivalPos="492.80" arrivalSpeed="10.44" duration="88.00" routeLength="989.90" waitingTime="0.00" waitingCount="0" stopTime="0.00" timeLoss="13.59" rerouteNo="0" devices="tripinfo_SN_97" vType="truck" speedFactor="0.94" vaporized=""/>
    <tripinfo id="NS_105" depart="105.00" departLane="2i_0" departPos="4.10" departSpeed="0.00" departDelay="0.00" arrival="190.00" arrivalLane="1o_0" arrivalPos="492.80" arrivalSpeed="10.31" duration="85.00" routeLength="995.90" waitingTime="0.00" waitingCount="0" stopTime="0.00" timeLoss="10.15" rerouteNo="0" devices="tripinfo_NS_105" vType="car" speedFactor="0.95" vaporized=""/>
    <tripinfo id="WE_114" depart="114.00" departLane="1i_0" departPos="10.10" departSpeed="0.00" departDelay="0.00" arrival="199.00" arrivalLane="3o_0" arrivalPos="492.80" arrivalSpeed="10.41" duration="85.00" routeLength="984.53" waitingTime="0.00" waitingCount="0" stopTime="0.00" timeLoss="12.10" rerouteNo="0" devices="tripinfo_WE_114" vType="truck" speedFactor="0.97" vaporized=""/>
    <tripinfo id="WE_115" depart="118.00" departLane="1i_0" departPos="4.10" departSpeed="0.00" departDelay="3.00" arrival="201.00" arrivalLane="3o_0" arrivalPos="492.80" arrivalSpeed="12.91" duration="83.00" routeLength="990.53" waitingTime="0.00" waitingCount="0" stopTime="0.00" timeLoss="22.84" rerouteNo="0" devices="tripinfo_WE_115" vType="car" speedFactor="1.18" vaporized=""/>
    <tripinfo id="WE_119" depart="121.00" departLane="1i_0" departPos="4.10" departSpeed="0.00" departDelay="2.00" arrival="203.00" arrivalLane="3o_0" arrivalPos="492.80" arrivalSpeed="11.59" duration="82.00" routeLength="990.53" waitingTime="0.00" waitingCount="0" stopTime="0.00" timeLoss="20.46" rerouteNo="0" devices="tripinfo_WE_119" vType="car" speedFactor="1.15" vaporized=""/>
    <tripinfo id="NS_132" depart="132.00" departLane="2i_0" departPos="4.10" departSpeed="0.00" departDelay="0.00" arrival="210.00" arrivalLane="1o_0" arrivalPos="492.80" arrivalSpeed="10.27" duration="78.00" routeLength="995.90" waitingTime="0.00" waitingCount="0" stopTime="0.00" timeLoss="7.22" rerouteNo="0" devices="tripinfo_NS_132" vType="car" speedFactor="1.01" vaporized=""/>
    <tripinfo id="WE_144" depart="144.00" departLane="1i_0" departPos="4.10" departSpeed="0.00" departDelay="0.00" arrival="212.00" arrivalLane="2o_0" arrivalPos="492.80" arrivalSpeed="12.03" duration="68.00" routeLength="995.90" waitingTime="0.00" waitingCount="0" stopTime="0.00" timeLoss="7.91" rerouteNo="0" devices="tripinfo_WE_144" vType="car" speedFactor="1.18" vaporized=""/>
    <tripinfo id="NS_145" depart="145.00" departLane="2i_0" departPos="4.10" departSpeed="0.00" departDelay="0.00" arrival="219.00" arrivalLane="3o_0" arrivalPos="492.80" arrivalSpeed="11.10" duration="74.00" routeLength="995.70" waitingTime="0.00" waitingCount="0" stopTime="0.00" timeLoss="9.78" rerouteNo="0" devices="tripinfo_NS_145" vType="car" speedFactor="1.10" vaporized=""/>
    <tripinfo id="WE_152" depart="152.00" departLane="1i_0" departPos="4.10" departSpeed="0.00" departDelay="0.00" arrival="229.00" arrivalLane="3o_0" arrivalPos="492.80" arrivalSpeed="10.75" duration="77.00" routeLength="990.53" waitingTime="0.00" waitingCount="0" stopTime="0.00" timeLoss="8.03" rerouteNo="0" devices="tripinfo_WE_152" vType="car" speedFactor="1.03" vaporized=""/>
    <tripinfo id="EW_105" depart="105.00" departLane="4i_0" departPos="4.10" departSpeed="0.00" departDelay="0.00" arrival="232.00" arrivalLane="1o_0" arrivalPos="492.80" arrivalSpeed="9.42" duration="127.00" routeLength="990.53" waitingTime="39.00" waitingCount="1" stopTime="0.00" timeLoss="49.61" rerouteNo="0" devices="tripinfo_EW_105" vType="car" speedFactor="0.92" vaporized=""/>
    <tripinfo id="NS_147" depart="149.00" departLane="2i_0" departPos="10.10" departSpeed="0.00" departDelay="2.00" arrival="235.00" arrivalLane="1o_0" arrivalPos="492.80" arrivalSpeed="10.51" duration="86.00" routeLength="989.90" waitingTime="0.00" waitingCount="0" stopTime="0.00" timeLoss="11.34" rerouteNo="0" devices="tripinfo_NS_147" vType="truck" speedFactor="0.95" vaporized=""/>
    <tripinfo id="EW_133" depart="138.00" departLane="4i_0" departPos="4.10" departSpeed="0.00" departDelay="5.00" arrival="237.00" arrivalLane="1o_0" arrivalPos="492.80" arrivalSpeed="12.41" duration="99.00" routeLength="990.53" waitingTime="16.00" waitingCount="2" stopTime="0.00" timeLoss="38.44" rerouteNo="0" devices="tripinfo_EW_133" vType="car" speedFactor="1.17" vaporized=""/>
    <tripinfo id="SN_98" depart="101.00" departLane="3i_0" departPos="4.10" departSpeed="0.00" departDelay="3.00" arrival="238.00" arrivalLane="2o_0" arrivalPos="492.80" arrivalSpeed="8.52" duration="137.00" routeLength="990.53" waitingTime="38.00" waitingCount="1" stopTime="0.00" timeLoss="51.71" rerouteNo="0" devices="tripinfo_SN_98" vType="car" speedFactor="0.83" vaporized=""/>
    <tripinfo id="EW_140" depart="141.00" departLane="4i_0" departPos="4.10" departSpeed="0.00" departDelay="1.00" arrival="240.00" arrivalLane="3o_0" arrivalPos="492.80" arrivalSpeed="11.14" duration="99.00" routeLength="995.90" waitingTime="9.00" waitingCount="2" stopTime="0.00" timeLoss="29.56" rerouteNo="0" devices="tripinfo_EW_140" vType="car" speedFactor="1.02" vaporized=""/>
    <tripinfo id="SN_101" depart="103.00" departLane="3i_0" departPos="4.10" departSpeed="0.00" departDelay="2.00" arrival="245.00" arrivalLane="4o_0" arrivalPos="492.80" arrivalSpeed="8.54" duration="142.00" routeLength="995.90" waitingTime="42.00" waitingCount="2" stopTime="0.00" timeLoss="61.09" rerouteNo="0" devices="tripinfo_SN_101" vType="car" speedFactor="0.87" vaporized=""/>
    <tripinfo id="EW_142" depart="144.00" departLane="4i_0" departPos="4.10" departSpeed="0.00" departDelay="2.00" arrival="245.00" arrivalLane="3o_0" arrivalPos="492.80" arrivalSpeed="9.97" duration="101.00" routeLength="995.90" waitingTime="7.00" waitingCount="2" stopTime="0.00" timeLoss="27.90" rerouteNo="0" devices="tripinfo_EW_142" vType="car" speedFactor="0.97" vaporized=""/>
    <tripinfo id="EW_157" depart="158.00" departLane="4i_0" departPos="10.10" departSpeed="0.00" departDelay="1.00" arrival="247.00" arrivalLane="3o_0" arrivalPos="492.80" arrivalSpeed="10.69" duration="89.00" routeLength="989.90" waitingTime="0.00" waitingCount="0" stopTime="0.00" timeLoss="17.07" rerouteNo="0" devices="tripinfo_EW_157" vType="truck" speedFactor="0.98" vaporized=""/>
    <tripinfo id="SN_107" depart="107.00" departLane="3i_0" departPos="10.10" departSpeed="0.00" departDelay="0.00" arrival="248.00" arrivalLane="4o_0" arrivalPos="492.80" arrivalSpeed="11.71" duration="141.00" routeLength="989.90" waitingTime="37.00" waitingCount="2" stopTime="0.00" timeLoss="73.42" rerouteNo="0" devices="tripinfo_SN_107" vType="truck" speedFactor="1.07" vaporized=""/>
    <tripinfo id="WE_158" depart="158.00" departLane="1i_0" departPos="10.10" departSpeed="0.00" departDelay="0.00" arrival="250.00" arrivalLane="2o_0" arrivalPos="492.80" arrivalSpeed="11.57" duration="92.00" routeLength="989.90" waitingTime="3.00" waitingCount="2" stopTime="0.00" timeLoss="24.19" rerouteNo="0" devices="tripinfo_WE_158" vType="truck" speedFactor="1.05" vaporized=""/>
    <tripinfo id="EW_158" depart="162.00" departLane="4i_0" departPos="4.10" departSpeed="0.00" departDelay="4.00" arrival="255.00" arrivalLane="2o_0" arrivalPos="492.80" arrivalSpeed="11.21" duration="93.00" routeLength="995.70" waitingTime="4.00" waitingCount="1" stopTime="0.00" timeLoss="24.09" rerouteNo="0" devices="tripinfo_EW_158" vType="car" speedFactor="1.04" vaporized=""/>
    <tripinfo id="EW_167" depart="167.00" departLane="4i_0" departPos="4.10" departSpeed="0.00" departDelay="0.00" arrival="256.00" arrivalLane="3o_0" arrivalPos="492.80" arrivalSpeed="11.57" duration="89.00" routeLength="995.90" waitingTime="3.00" waitingCount="1" stopTime="0.00" timeLoss="23.21" rerouteNo="0" devices="tripinfo_EW_167" vType="car" speedFactor="1.09" vaporized=""/>
    <tripinfo id="SN_133" depart="133.00" departLane="3i_0" departPos="4.10" departSpeed="0.00" departDelay="0.00" arrival="257.00" arrivalLane="1o_0" arrivalPos="492.80" arrivalSpeed="10.70" duration="124.00" routeLength="995.70" waitingTime="24.00" waitingCount="3" stopTime="0.00" timeLoss="52.39" rerouteNo="0" devices="tripinfo_SN_133" vType="car" speedFactor="0.99" vaporized=""/>
    <tripinfo id="WE_165" depart="165.00" departLane="1i_0" departPos="4.10" departSpeed="0.00" departDelay="0.00" arrival="261.00" arrivalLane="2o_0" arrivalPos="492.80" arrivalSpeed="11.52" duration="96.00" routeLength="995.90" waitingTime="2.00" waitingCount="2" stopTime="0.00" timeLoss="27.66" rerouteNo="0" devices="tripinfo_WE_165" vType="car" speedFactor="1.04" vaporized=""/>
    <tripinfo id="WE_168" depart="168.00" departLane="1i_0" departPos="4.10" departSpeed="0.00" departDelay="0.00" arrival="269.00" arrivalLane="2o_0" arrivalPos="492.80" arrivalSpeed="10.39" duration="101.00" routeLength="995.90" waitingTime="1.00" waitingCount="1" stopTime="0.00" timeLoss="30.24" rerouteNo="0" devices="tripinfo_WE_168" vType="car" speedFactor="1.00" vaporized=""/>
    <tripinfo id="EW_175" depart="175.00" departLane="4i_0" departPos="4.10" departSpeed="0.00" departDelay="0.00" arrival="270.00" arrivalLane="1o_0" arrivalPos="492.80" arrivalSpeed="8.16" duration="95.00" routeLength="990.53" waitingTime="0.00" waitingCount="0" stopTime="0.00" timeLoss="11.80" rerouteNo="0" devices="tripinfo_EW_175" vType="car" speedFactor="0.85" vaporized=""/>
    <tripinfo id="EW_178" depart="178.00" departLane="4i_0" departPos="4.10" departSpeed="0.00" departDelay="0.00" arrival="272.00" arrivalLane="1o_0" arrivalPos="492.80" arrivalSpeed="9.16" duration="94.00" routeLength="990.53" waitingTime="0.00" waitingCount="0" stopTime="0.00" timeLoss="11.32" rerouteNo="0" devices="tripinfo_EW_178" vType="car" speedFactor="0.85" vaporized=""/>
    <tripinfo id="EW_191" depart="191.00" departLane="4i_0" departPos="4.10" departSpeed="0.00" departDelay="0.00" arrival="272.00" arrivalLane="3o_0" arrivalPos="492.80" arrivalSpeed="10.86" duration="81.00" routeLength="995.90" waitingTime="0.00" waitingCount="0" stopTime="0.00" timeLoss="10.13" rerouteNo="0" devices="tripinfo_EW_191" vType="car" speedFactor="1.00" vaporized=""/>
    <tripinfo id="SN_174" depart="174.00" departLane="3i_0" departPos="4.10" departSpeed="0.00" departDelay="0.00" arrival="274.00" arrivalLane="1o_0" arrivalPos="492.80" arrivalSpeed="9.52" duration="100.00" routeLength="995.70" waitingTime="5.00" waitingCount="1" stopTime="0.00" timeLoss="21.01" rerouteNo="0" devices="tripinfo_SN_174" vType="car" speedFactor="0.90" vaporized=""/>
    <tripinfo id="NS_190" depart="190.00" departLane="2i_0" departPos="4.10" departSpeed="0.00" departDelay="0.00" arrival="275.00" arrivalLane="1o_0" arrivalPos="492.80" arrivalSpeed="11.62" duration="85.00" routeLength="995.90" waitingTime="0.00" waitingCount="0" stopTime="0.00" timeLoss="20.54" rerouteNo="0" devices="tripinfo_NS_190" vType="car" speedFactor="1.10" vaporized=""/>
    <tripinfo id="WE_175" depart="175.00" departLane="1i_0" departPos="4.10" departSpeed="0.00" departDelay="0.00" arrival="277.00" arrivalLane="2o_0" arrivalPos="492.80" arrivalSpeed="8.50" duration="102.00" routeLength="995.90" waitingTime="0.00" waitingCount="0" stopTime="0.00" timeLoss="21.43" rerouteNo="0" devices="tripinfo_WE_175" vType="car" speedFactor="0.88" vaporized=""/>
    <tripinfo id="WE_194" depart="194.00" departLane="1i_0" departPos="4.10" departSpeed="0.00" departDelay="0.00" arrival="277.00" arrivalLane="3o_0" arrivalPos="492.80" arrivalSpeed="9.91" duration="83.00" routeLength="990.53" waitingTime="0.00" waitingCount="0" stopTime="0.00" timeLoss="11.82" rerouteNo="0" devices="tripinfo_WE_194" vType="car" speedFactor="1.00" vaporized=""/>
    <tripinfo id="SN_188" depart="188.00" departLane="3i_0" departPos="4.10" departSpeed="0.00" departDelay="0.00" arrival="279.00" arrivalLane="2o_0" arrivalPos="492.80" arrivalSpeed="10.79" duration="91.00" routeLength="990.53" waitingTime="0.00" waitingCount="0" stopTime="0.00" timeLoss="21.42" rerouteNo="0" devices="tripinfo_SN_188" vType="car" speedFactor="1.02" vaporized=""/>
    <tripinfo id="WE_182" depart="182.00" departLane="1i_0" departPos="4.10" departSpeed="0.00" departDelay="0.00" arrival="280.00" arrivalLane="2o_0" arrivalPos="492.80" arrivalSpeed="12.22" duration="98.00" routeLength="995.90" waitingTime="0.00" waitingCount="0" stopTime="0.00" timeLoss="37.57" rerouteNo="0" devices="tripinfo_WE_182" vType="car" speedFactor="1.17" vaporized=""/>
    <tripinfo id="WE_205" depart="205.00" departLane="1i_0" departPos="4.10" departSpeed="0.00" departDelay="0.00" arrival="282.00" arrivalLane="2o_0" arrivalPos="492.80" arrivalSpeed="11.02" duration="77.00" routeLength="995.90" waitingTime="0.00" waitingCount="0" stopTime="0.00" timeLoss="11.66" rerouteNo="0" devices="tripinfo_WE_205" vType="car" speedFactor="1.08" vaporized=""/>
    <tripinfo id="WE_206" depart="210.00" departLane="1i_0" departPos="4.10" departSpeed="0.00" departDelay="4.00" arrival="284.00" arrivalLane="2o_0" arrivalPos="492.80" arrivalSpeed="11.85" duration="74.00" routeLength="995.90" waitingTime="0.00" waitingCount="0" stopTime="0.00" timeLoss="10.45" rerouteNo="0" devices="tripinfo_WE_206" vType="car" speedFactor="1.12" vaporized=""/>
    <tripinfo id="WE_195" depart="197.00" departLane="1i_0" departPos="4.10" departSpeed="0.00" departDelay="2.00" arrival="286.00" arrivalLane="3o_0" arrivalPos="492.80" arrivalSpeed="9.93" duration="89.00" routeLength="990.53" waitingTime="0.00" waitingCount="0" stopTime="0.00" timeLoss="10.02" rerouteNo="0" devices="tripinfo_WE_195" vType="car" speedFactor="0.90" vaporized=""/>
    <tripinfo id="SN_200" depart="203.00" departLane="3i_0" departPos="4.10" departSpeed="0.00" departDelay="3.00" arrival="289.00" arrivalLane="4o_0" arrivalPos="492.80" arrivalSpeed="11.54" duration="86.00" routeLength="995.90" waitingTime="12.00" waitingCount="1" stopTime="0.00" timeLoss="23.88" rerouteNo="0" devices="tripinfo_SN_200" vType="car" speedFactor="1.14" vaporized=""/>
    <tripinfo id="NS_203" depart="203.00" departLane="2i_0" departPos="4.10" departSpeed="0.00" departDelay="0.00" arrival="291.00" arrivalLane="3o_0" arrivalPos="492.80" arrivalSpeed="10.49" duration="88.00" routeLength="995.70" waitingTime="5.00" waitingCount="1" stopTime="0.00" timeLoss="18.38" rerouteNo="0" devices="tripinfo_NS_203" vType="car" speedFactor="1.02" vaporized=""/>
    <tripinfo id="WE_211" depart="213.00" departLane="1i_0" departPos="4.10" departSpeed="0.00" departDelay="2.00" arrival="298.00" arrivalLane="4o_0" arrivalPos="492.80" arrivalSpeed="10.37" duration="85.00" routeLength="995.70" waitingTime="1.00" waitingCount="1" stopTime="0.00" timeLoss="13.19" rerouteNo="0" devices="tripinfo_WE_211" vType="car" speedFactor="0.99" vaporized=""/>
    <tripinfo id="SN_218" depart="219.00" departLane="3i_0" departPos="4.10" departSpeed="0.00" departDelay="1.00" arrival="306.00" arrivalLane="2o_0" arrivalPos="492.80" arrivalSpeed="9.90" duration="87.00" routeLength="990.53" waitingTime="0.00" waitingCount="0" stopTime="0.00" timeLoss="8.88" rerouteNo="0" devices="tripinfo_SN_218" vType="car" speedFactor="0.91" vaporized=""/>
    <tripinfo id="EW_204" depart="204.00" departLane="4i_0" departPos="4.10" departSpeed="0.00" departDelay="0.00" arrival="308.00" arrivalLane="2o_0" arrivalPos="492.80" arrivalSpeed="9.92" duration="104.00" routeLength="995.70" waitingTime="14.00" waitingCount="2" stopTime="0.00" timeLoss="30.64" rerouteNo="0" devices="tripinfo_EW_204" vType="car" speedFactor="0.97" vaporized=""/>
    <tripinfo id="NS_232" depart="232.00" departLane="2i_0" departPos="4.10" departSpeed="0.00" departDelay="0.00" arrival="313.00" arrivalLane="3o_0" arrivalPos="492.80" arrivalSpeed="10.51" duration="81.00" routeLength="995.70" waitingTime="0.00" waitingCount="0" stopTime="0.00" timeLoss="11.55" rerouteNo="0" devices="tripinfo_NS_232" vType="car" speedFactor="1.02" vaporized=""/>
    <tripinfo id="WE_216" depart="216.00" departLane="1i_0" departPos="10.10" departSpeed="0.00" departDelay="0.00" arrival="314.00" arrivalLane="4o_0" arrivalPos="492.80" arrivalSpeed="10.23" duration="98.00" routeLength="989.70" waitingTime="2.00" waitingCount="1" stopTime="0.00" timeLoss="23.03" rerouteNo="0" devices="tripinfo_WE_216" vType="truck" speedFactor="0.94" vaporized=""/>
    <tripinfo id="EW_209" depart="209.00" departLane="4i_0" departPos="4.10" departSpeed="0.00" departDelay="0.00" arrival="317.00" arrivalLane="2o_0" arrivalPos="492.80" arrivalSpeed="10.19" duration="108.00" routeLength="995.70" waitingTime="18.00" waitingCount="4" stopTime="0.00" timeLoss="37.86" rerouteNo="0" devices="tripinfo_EW_209" vType="car" speedFactor="1.02" vaporized=""/>
    <tripinfo id="WE_226" depart="226.00" departLane="1i_0" departPos="4.10" departSpeed="0.00" departDelay="0.00" arrival="321.00" arrivalLane="2o_0" arrivalPos="492.80" arrivalSpeed="11.15" duration="95.00" routeLength="995.90" waitingTime="5.00" waitingCount="4" stopTime="0.00" timeLoss="26.69" rerouteNo="0" devices="tripinfo_WE_226" vType="car" speedFactor="1.04" vaporized=""/>
    <tripinfo id="SN_225" depart="225.00" departLane="3i_0" departPos="4.10" departSpeed="0.00" departDelay="0.00" arrival="324.00" arrivalLane="1o_0" arrivalPos="492.80" arrivalSpeed="10.10" duration="99.00" routeLength="995.70" waitingTime="7.00" waitingCount="1" stopTime="0.00" timeLoss="21.52" rerouteNo="0" devices="tripinfo_SN_225" vType="car" speedFactor="0.91" vaporized=""/>
    <tripinfo id="EW_213" depart="213.00" departLane="4i_0" departPos="10.10" departSpeed="0.00" departDelay="0.00" arrival="327.00" arrivalLane="2o_0" arrivalPos="492.80" arrivalSpeed="10.66" duration="114.00" routeLength="989.70" waitingTime="9.00" waitingCount="4" stopTime="0.00" timeLoss="40.91" rerouteNo="0" devices="tripinfo_EW_213" vType="truck" speedFactor="0.97" vaporized=""/>
    <tripinfo id="WE_238" depart="238.00" departLane="1i_0" departPos="4.10" departSpeed="0.00" departDelay="0.00" arrival="328.00" arrivalLane="3o_0" arrivalPos="492.80" arrivalSpeed="11.05" duration="90.00" routeLength="990.53" waitingTime="0.00" waitingCount="0" stopTime="0.00" timeLoss="23.32" rerouteNo="0" devices="tripinfo_WE_238" vType="car" speedFactor="1.06" vaporized=""/>
    <tripinfo id="WE_235" depart="235.00" departLane="1i_0" departPos="4.10" departSpeed="0.00" departDelay="0.00" arrival="330.00" arrivalLane="2o_0" arrivalPos="492.80" arrivalSpeed="9.90" duration="95.00" routeLength="995.90" waitingTime="2.00" waitingCount="2" stopTime="0.00" timeLoss="22.32" rerouteNo="0" devices="tripinfo_WE_235" vType="car" speedFactor="0.97" vaporized=""/>
    <tripinfo id="NS_251" depart="251.00" departLane="2i_0" departPos="4.10" departSpeed="0.00" departDelay="0.00" arrival="330.00" arrivalLane="1o_0" arrivalPos="492.80" arrivalSpeed="10.11" duration="79.00" routeLength="995.90" waitingTime="0.00" waitingCount="0" stopTime="0.00" timeLoss="7.13" rerouteNo="0" devices="tripinfo_NS_251" vType="car" speedFactor="0.98" vaporized=""/>
    <tripinfo id="NS_257" depart="257.00" departLane="2i_0" departPos="4.10" departSpeed="0.00" departDelay="0.00" arrival="332.00" arrivalLane="1o_0" arrivalPos="492.80" arrivalSpeed="11.53" duration="75.00" routeLength="995.90" waitingTime="0.00" waitingCount="0" stopTime="0.00" timeLoss="9.45" rerouteNo="0" devices="tripinfo_NS_257" vType="car" speedFactor="1.09" vaporized=""/>
    <tripinfo id="SN_237" depart="237.00" departLane="3i_0" departPos="4.10" departSpeed="0.00" departDelay="0.00" arrival="336.00" arrivalLane="2o_0" arrivalPos="492.80" arrivalSpeed="10.35" duration="99.00" routeLength="990.53" waitingTime="9.00" waitingCount="1" stopTime="0.00" timeLoss="24.31" rerouteNo="0" devices="tripinfo_SN_237" vType="car" speedFactor="0.94" vaporized=""/>
    <tripinfo id="EW_234" depart="234.00" departLane="4i_0" departPos="4.10" departSpeed="0.00" departDelay="0.00" arrival="338.00" arrivalLane="2o_0" arrivalPos="492.80" arrivalSpeed="10.73" duration="104.00" routeLength="995.70" waitingTime="7.00" waitingCount="3" stopTime="0.00" timeLoss="34.74" rerouteNo="0" devices="tripinfo_EW_234" vType="car" speedFactor="1.02" vaporized=""/>