<?xml version="1.0" encoding="UTF-8"?>

<!-- generated on 2024-05-05 17:40:39 by Eclipse SUMO sumo Version 1.19.0
<configuration xmlns:xsi="http://www.w3.org/2001/XMLSchema-instance" xsi:noNamespaceSchemaLocation="http://sumo.dlr.de/xsd/sumoConfiguration.xsd">

    <input>
        <net-file value="twoone.net.xml"/>
        <route-files value="route_gen.rou.xml"/>
    </input>

    <output>
        <tripinfo-output value="tripinfo_epi343.xml"/>
    </output>

    <report>
        <no-warnings value="true"/>
    </report>

    <traci_server>
        <remote-port value="33039"/>
    </traci_server>

</configuration>
-->

<tripinfos xmlns:xsi="http://www.w3.org/2001/XMLSchema-instance" xsi:noNamespaceSchemaLocation="http://sumo.dlr.de/xsd/tripinfo_file.xsd">
    <tripinfo id="NS_0" depart="0.00" departLane="2i_0" departPos="4.10" departSpeed="0.00" departDelay="0.00" arrival="77.00" arrivalLane="3o_0" arrivalPos="492.80" arrivalSpeed="11.53" duration="77.00" routeLength="995.70" waitingTime="0.00" waitingCount="0" stopTime="0.00" timeLoss="10.40" rerouteNo="0" devices="tripinfo_NS_0" vType="car" speedFactor="1.06" vaporized=""/>
    <tripinfo id="NS_5" depart="5.00" departLane="2i_0" departPos="4.10" departSpeed="0.00" departDelay="0.00" arrival="79.00" arrivalLane="4o_0" arrivalPos="492.80" arrivalSpeed="11.93" duration="74.00" routeLength="990.53" waitingTime="0.00" waitingCount="0" stopTime="0.00" timeLoss="8.60" rerouteNo="0" devices="tripinfo_NS_5" vType="car" speedFactor="1.08" vaporized=""/>
    <tripinfo id="EW_5" depart="5.00" departLane="4i_0" departPos="4.10" departSpeed="0.00" departDelay="0.00" arrival="84.00" arrivalLane="1o_0" arrivalPos="492.80" arrivalSpeed="10.23" duration="79.00" routeLength="990.53" waitingTime="0.00" waitingCount="0" stopTime="0.00" timeLoss="8.74" rerouteNo="0" devices="tripinfo_EW_5" vType="car" speedFactor="1.01" vaporized=""/>
    <tripinfo id="SN_0" depart="0.00" departLane="3i_0" departPos="4.10" departSpeed="0.00" departDelay="0.00" arrival="86.00" arrivalLane="2o_0" arrivalPos="492.80" arrivalSpeed="9.71" duration="86.00" routeLength="990.53" waitingTime="0.00" waitingCount="0" stopTime="0.00" timeLoss="10.27" rerouteNo="0" devices="tripinfo_SN_0" vType="car" speedFactor="0.94" vaporized=""/>
    <tripinfo id="SN_5" depart="5.00" departLane="3i_0" departPos="4.10" departSpeed="0.00" departDelay="0.00" arrival="89.00" arrivalLane="1o_0" arrivalPos="492.80" arrivalSpeed="11.22" duration="84.00" routeLength="995.70" waitingTime="0.00" waitingCount="0" stopTime="0.00" timeLoss="15.18" rerouteNo="0" devices="tripinfo_SN_5" vType="car" speedFactor="1.03" vaporized=""/>
    <tripinfo id="EW_10" depart="10.00" departLane="4i_0" departPos="4.10" departSpeed="0.00" departDelay="0.00" arrival="91.00" arrivalLane="1o_0" arrivalPos="492.80" arrivalSpeed="11.56" duration="81.00" routeLength="990.53" waitingTime="0.00" waitingCount="0" stopTime="0.00" timeLoss="13.26" rerouteNo="0" devices="tripinfo_EW_10" vType="car" speedFactor="1.05" vaporized=""/>
    <tripinfo id="NS_20" depart="21.00" departLane="2i_0" departPos="4.10" departSpeed="0.00" departDelay="1.00" arrival="98.00" arrivalLane="4o_0" arrivalPos="492.80" arrivalSpeed="10.46" duration="77.00" routeLength="990.53" waitingTime="0.00" waitingCount="0" stopTime="0.00" timeLoss="8.95" rerouteNo="0" devices="tripinfo_NS_20" vType="car" speedFactor="1.05" vaporized=""/>
    <tripinfo id="SN_11" depart="11.00" departLane="3i_0" departPos="4.10" departSpeed="0.00" departDelay="0.00" arrival="99.00" arrivalLane="2o_0" arrivalPos="492.80" arrivalSpeed="9.65" duration="88.00" routeLength="990.53" waitingTime="0.00" waitingCount="0" stopTime="0.00" timeLoss="8.19" rerouteNo="0" devices="tripinfo_SN_11" vType="car" speedFactor="0.89" vaporized=""/>
    <tripinfo id="WE_9" depart="9.00" departLane="1i_0" departPos="4.10" departSpeed="0.00" departDelay="0.00" arrival="102.00" arrivalLane="3o_0" arrivalPos="492.80" arrivalSpeed="8.70" duration="93.00" routeLength="990.53" waitingTime="0.00" waitingCount="0" stopTime="0.00" timeLoss="8.29" rerouteNo="0" devices="tripinfo_WE_9" vType="car" speedFactor="0.83" vaporized=""/>
    <tripinfo id="WE_18" depart="18.00" departLane="1i_0" departPos="4.10" departSpeed="0.00" departDelay="0.00" arrival="104.00" arrivalLane="3o_0" arrivalPos="492.80" arrivalSpeed="10.92" duration="86.00" routeLength="990.53" waitingTime="0.00" waitingCount="0" stopTime="0.00" timeLoss="21.15" rerouteNo="0" devices="tripinfo_WE_18" vType="car" speedFactor="1.09" vaporized=""/>
    <tripinfo id="NS_18" depart="18.00" departLane="2i_0" departPos="4.10" departSpeed="0.00" departDelay="0.00" arrival="106.00" arrivalLane="3o_0" arrivalPos="492.80" arrivalSpeed="11.30" duration="88.00" routeLength="995.70" waitingTime="0.00" waitingCount="0" stopTime="0.00" timeLoss="18.74" rerouteNo="0" devices="tripinfo_NS_18" vType="car" speedFactor="1.03" vaporized=""/>
    <tripinfo id="NS_26" depart="26.00" departLane="2i_0" departPos="4.10" departSpeed="0.00" departDelay="0.00" arrival="108.00" arrivalLane="3o_0" arrivalPos="492.80" arrivalSpeed="11.60" duration="82.00" routeLength="995.70" waitingTime="0.00" waitingCount="0" stopTime="0.00" timeLoss="18.35" rerouteNo="0" devices="tripinfo_NS_26" vType="car" speedFactor="1.12" vaporized=""/>
    <tripinfo id="SN_12" depart="13.00" departLane="3i_0" departPos="4.10" departSpeed="0.00" departDelay="1.00" arrival="112.00" arrivalLane="4o_0" arrivalPos="492.80" arrivalSpeed="9.32" duration="99.00" routeLength="995.90" waitingTime="11.00" waitingCount="1" stopTime="0.00" timeLoss="23.43" rerouteNo="0" devices="tripinfo_SN_12" vType="car" speedFactor="0.94" vaporized=""/>
    <tripinfo id="NS_28" depart="29.00" departLane="2i_0" departPos="4.10" departSpeed="0.00" departDelay="1.00" arrival="114.00" arrivalLane="1o_0" arrivalPos="492.80" arrivalSpeed="9.93" duration="85.00" routeLength="995.90" waitingTime="0.00" waitingCount="0" stopTime="0.00" timeLoss="9.77" rerouteNo="0" devices="tripinfo_NS_28" vType="car" speedFactor="0.94" vaporized=""/>
    <tripinfo id="NS_30" depart="32.00" departLane="2i_0" departPos="4.10" departSpeed="0.00" departDelay="2.00" arrival="120.00" arrivalLane="3o_0" arrivalPos="492.80" arrivalSpeed="10.10" duration="88.00" routeLength="995.70" waitingTime="1.00" waitingCount="1" stopTime="0.00" timeLoss="12.55" rerouteNo="0" devices="tripinfo_NS_30" vType="car" speedFactor="0.94" vaporized=""/>
    <tripinfo id="EW_28" depart="28.00" departLane="4i_0" departPos="4.10" departSpeed="0.00" departDelay="0.00" arrival="122.00" arrivalLane="1o_0" arrivalPos="492.80" arrivalSpeed="9.56" duration="94.00" routeLength="990.53" waitingTime="1.00" waitingCount="1" stopTime="0.00" timeLoss="13.89" rerouteNo="0" devices="tripinfo_EW_28" vType="car" speedFactor="0.88" vaporized=""/>
    <tripinfo id="SN_13" depart="16.00" departLane="3i_0" departPos="4.10" departSpeed="0.00" departDelay="3.00" arrival="124.00" arrivalLane="2o_0" arrivalPos="492.80" arrivalSpeed="8.35" duration="108.00" routeLength="990.53" waitingTime="9.00" waitingCount="2" stopTime="0.00" timeLoss="25.64" rerouteNo="0" devices="tripinfo_SN_13" vType="car" speedFactor="0.86" vaporized=""/>
    <tripinfo id="EW_35" depart="35.00" departLane="4i_0" departPos="4.10" departSpeed="0.00" departDelay="0.00" arrival="126.00" arrivalLane="2o_0" arrivalPos="492.80" arrivalSpeed="12.75" duration="91.00" routeLength="995.70" waitingTime="0.00" waitingCount="0" stopTime="0.00" timeLoss="29.24" rerouteNo="0" devices="tripinfo_EW_35" vType="car" speedFactor="1.16" vaporized=""/>
    <tripinfo id="EW_39" depart="39.00" departLane="4i_0" departPos="4.10" departSpeed="0.00" departDelay="0.00" arrival="126.00" arrivalLane="3o_0" arrivalPos="492.80" arrivalSpeed="11.01" duration="87.00" routeLength="995.90" waitingTime="2.00" waitingCount="1" stopTime="0.00" timeLoss="17.24" rerouteNo="0" devices="tripinfo_EW_39" vType="car" speedFactor="1.02" vaporized=""/>
    <tripinfo id="SN_26" depart="26.00" departLane="3i_0" departPos="4.10" departSpeed="0.00" departDelay="0.00" arrival="128.00" arrivalLane="4o_0" arrivalPos="492.80" arrivalSpeed="10.92" duration="102.00" routeLength="995.90" waitingTime="8.00" waitingCount="2" stopTime="0.00" timeLoss="30.09" rerouteNo="0" devices="tripinfo_SN_26" vType="car" speedFactor="0.99" vaporized=""/>
    <tripinfo id="EW_45" depart="45.00" departLane="4i_0" departPos="4.10" departSpeed="0.00" departDelay="0.00" arrival="131.00" arrivalLane="3o_0" arrivalPos="492.80" arrivalSpeed="10.88" duration="86.00" routeLength="995.90" waitingTime="0.00" waitingCount="0" stopTime="0.00" timeLoss="15.50" rerouteNo="0" devices="tripinfo_EW_45" vType="car" speedFactor="1.01" vaporized=""/>
    <tripinfo id="NS_46" depart="46.00" departLane="2i_0" departPos="4.10" departSpeed="0.00" departDelay="0.00" arrival="134.00" arrivalLane="4o_0" arrivalPos="492.80" arrivalSpeed="9.76" duration="88.00" routeLength="990.53" waitingTime="2.00" waitingCount="1" stopTime="0.00" timeLoss="15.24" rerouteNo="0" devices="tripinfo_NS_46" vType="car" speedFactor="0.97" vaporized=""/>
    <tripinfo id="SN_27" depart="29.00" departLane="3i_0" departPos="4.10" departSpeed="0.00" departDelay="2.00" arrival="139.00" arrivalLane="1o_0" arrivalPos="492.80" arrivalSpeed="9.43" duration="110.00" routeLength="995.70" waitingTime="9.00" waitingCount="3" stopTime="0.00" timeLoss="33.35" rerouteNo="0" devices="tripinfo_SN_27" vType="car" speedFactor="0.93" vaporized=""/>
    <tripinfo id="NS_52" depart="52.00" departLane="2i_0" departPos="4.10" departSpeed="0.00" departDelay="0.00" arrival="139.00" arrivalLane="4o_0" arrivalPos="492.80" arrivalSpeed="10.00" duration="87.00" routeLength="990.53" waitingTime="0.00" waitingCount="0" stopTime="0.00" timeLoss="9.61" rerouteNo="0" devices="tripinfo_NS_52" vType="car" speedFactor="0.92" vaporized=""/>
    <tripinfo id="WE_49" depart="49.00" departLane="1i_0" departPos="4.10" departSpeed="0.00" departDelay="0.00" arrival="143.00" arrivalLane="3o_0" arrivalPos="492.80" arrivalSpeed="9.01" duration="94.00" routeLength="990.53" waitingTime="1.00" waitingCount="1" stopTime="0.00" timeLoss="13.24" rerouteNo="0" devices="tripinfo_WE_49" vType="car" speedFactor="0.87" vaporized=""/>
    <tripinfo id="EW_53" depart="53.00" departLane="4i_0" departPos="4.10" departSpeed="0.00" departDelay="0.00" arrival="145.00" arrivalLane="3o_0" arrivalPos="492.80" arrivalSpeed="10.10" duration="92.00" routeLength="995.90" waitingTime="3.00" waitingCount="1" stopTime="0.00" timeLoss="17.05" rerouteNo="0" devices="tripinfo_EW_53" vType="car" speedFactor="0.95" vaporized=""/>
    <tripinfo id="WE_60" depart="60.00" departLane="1i_0" departPos="10.10" departSpeed="0.00" departDelay="0.00" arrival="147.00" arrivalLane="3o_0" arrivalPos="492.80" arrivalSpeed="10.86" duration="87.00" routeLength="984.53" waitingTime="0.00" waitingCount="0" stopTime="0.00" timeLoss="21.55" rerouteNo="0" devices="tripinfo_WE_60" vType="truck" speedFactor="1.09" vaporized=""/>
    <tripinfo id="SN_47" depart="47.00" departLane="3i_0" departPos="4.10" departSpeed="0.00" departDelay="0.00" arrival="149.00" arrivalLane="1o_0" arrivalPos="492.80" arrivalSpeed="9.65" duration="102.00" routeLength="995.70" waitingTime="2.00" waitingCount="1" stopTime="0.00" timeLoss="21.89" rerouteNo="0" devices="tripinfo_SN_47" vType="car" speedFactor="0.89" vaporized=""/>
    <tripinfo id="EW_55" depart="56.00" departLane="4i_0" departPos="10.10" departSpeed="0.00" departDelay="1.00" arrival="160.00" arrivalLane="2o_0" arrivalPos="492.80" arrivalSpeed="10.30" duration="104.00" routeLength="989.70" waitingTime="7.00" waitingCount="1" stopTime="0.00" timeLoss="31.17" rerouteNo="0" devices="tripinfo_EW_55" vType="truck" speedFactor="0.97" vaporized=""/>
    <tripinfo id="WE_81" depart="81.00" departLane="1i_0" departPos="4.10" departSpeed="0.00" departDelay="0.00" arrival="164.00" arrivalLane="2o_0" arrivalPos="492.80" arrivalSpeed="9.82" duration="83.00" routeLength="995.90" waitingTime="0.00" waitingCount="0" stopTime="0.00" timeLoss="10.14" rerouteNo="0" devices="tripinfo_WE_81" vType="car" speedFactor="0.97" vaporized=""/>
    <tripinfo id="SN_48" depart="50.00" departLane="3i_0" departPos="4.10" departSpeed="0.00" departDelay="2.00" arrival="165.00" arrivalLane="4o_0" arrivalPos="492.80" arrivalSpeed="8.87" duration="115.00" routeLength="995.90" waitingTime="8.00" waitingCount="1" stopTime="0.00" timeLoss="28.96" rerouteNo="0" devices="tripinfo_SN_48" vType="car" speedFactor="0.83" vaporized=""/>
    <tripinfo id="NS_84" depart="86.00" departLane="2i_0" departPos="4.10" departSpeed="0.00" departDelay="2.00" arrival="167.00" arrivalLane="4o_0" arrivalPos="492.80" arrivalSpeed="11.39" duration="81.00" routeLength="990.53" waitingTime="0.00" waitingCount="0" stopTime="0.00" timeLoss="16.26" rerouteNo="0" devices="tripinfo_NS_84" vType="car" speedFactor="1.10" vaporized=""/>
    <tripinfo id="NS_99" depart="99.00" departLane="2i_0" departPos="4.10" departSpeed="0.00" departDelay="0.00" arrival="174.00" arrivalLane="3o_0" arrivalPos="492.80" arrivalSpeed="10.85" duration="75.00" routeLength="995.70" waitingTime="0.00" waitingCount="0" stopTime="0.00" timeLoss="9.69" rerouteNo="0" devices="tripinfo_NS_99" vType="car" speedFactor="1.09" vaporized=""/>
    <tripinfo id="NS_87" depart="89.00" departLane="2i_0" departPos="4.10" departSpeed="0.00" departDelay="2.00" arrival="176.00" arrivalLane="1o_0" arrivalPos="492.80" arrivalSpeed="9.16" duration="87.00" routeLength="995.90" waitingTime="0.00" waitingCount="0" stopTime="0.00" timeLoss="8.14" rerouteNo="0" devices="tripinfo_NS_87" vType="car" speedFactor="0.90" vaporized=""/>
    <tripinfo id="EW_84" depart="84.00" departLane="4i_0" departPos="4.10" departSpeed="0.00" departDelay="0.00" arrival="179.00" arrivalLane="2o_0" arrivalPos="492.80" arrivalSpeed="12.86" duration="95.00" routeLength="995.70" waitingTime="19.00" waitingCount="1" stopTime="0.00" timeLoss="34.76" rerouteNo="0" devices="tripinfo_EW_84" vType="car" speedFactor="1.18" vaporized=""/>
    <tripinfo id="SN_54" depart="54.00" departLane="3i_0" departPos="4.10" departSpeed="0.00" departDelay="0.00" arrival="183.00" arrivalLane="1o_0" arrivalPos="492.80" arrivalSpeed="11.48" duration="129.00" routeLength="995.70" waitingTime="36.00" waitingCount="3" stopTime="0.00" timeLoss="66.08" rerouteNo="0" devices="tripinfo_SN_54" vType="car" speedFactor="1.13" vaporized=""/>
    <tripinfo id="EW_79" depart="79.00" departLane="4i_0" departPos="4.10" departSpeed="0.00" departDelay="0.00" arrival="184.00" arrivalLane="3o_0" arrivalPos="492.80" arrivalSpeed="10.70" duration="105.00" routeLength="995.90" waitingTime="20.00" waitingCount="1" stopTime="0.00" timeLoss="35.20" rerouteNo="0" devices="tripinfo_EW_79" vType="car" speedFactor="1.02" vaporized=""/>
    <tripinfo id="SN_61" depart="61.00" departLane="3i_0" departPos="4.10" departSpeed="0.00" departDelay="0.00" arrival="191.00" arrivalLane="1o_0" arrivalPos="492.80" arrivalSpeed="12.02" duration="130.00" routeLength="995.70" waitingTime="36.00" waitingCount="5" stopTime="0.00" timeLoss="68.67" rerouteNo="0" devices="tripinfo_SN_61" vType="car" speedFactor="1.15" vaporized=""/>
    <tripinfo id="EW_93" depart="93.00" departLane="4i_0" departPos="4.10" departSpeed="0.00" departDelay="0.00" arrival="194.00" arrivalLane="3o_0" arrivalPos="492.80" arrivalSpeed="9.88" duration="101.00" routeLength="995.90" waitingTime="9.00" waitingCount="1" stopTime="0.00" timeLoss="26.84" rerouteNo="0" devices="tripinfo_EW_93" vType="car" speedFactor="0.96" vaporized=""/>
    <tripinfo id="EW_101" depart="101.00" departLane="4i_0" departPos="4.10" departSpeed="0.00" departDelay="0.00" arrival="196.00" arrivalLane="3o_0" arrivalPos="492.80" arrivalSpeed="10.25" duration="95.00" routeLength="995.90" waitingTime="3.00" waitingCount="1" stopTime="0.00" timeLoss="26.28" rerouteNo="0" devices="tripinfo_EW_101" vType="car" speedFactor="1.04" vaporized=""/>
    <tripinfo id="SN_62" depart="65.00" departLane="3i_0" departPos="10.10" departSpeed="0.00" departDelay="3.00" arrival="201.00" arrivalLane="2o_0" arrivalPos="492.80" arrivalSpeed="10.83" duration="136.00" routeLength="984.53" waitingTime="26.00" waitingCount="3" stopTime="0.00" timeLoss="66.29" rerouteNo="0" devices="tripinfo_SN_62" vType="truck" speedFactor="1.00" vaporized=""/>
    <tripinfo id="WE_106" depart="106.00" departLane="1i_0" departPos="4.10" departSpeed="0.00" departDelay="0.00" arrival="202.00" arrivalLane="4o_0" arrivalPos="492.80" arrivalSpeed="11.17" duration="96.00" routeLength="995.70" waitingTime="14.00" waitingCount="2" stopTime="0.00" timeLoss="27.63" rerouteNo="0" devices="tripinfo_WE_106" vType="car" speedFactor="1.04" vaporized=""/>
    <tripinfo id="NS_110" depart="110.00" departLane="2i_0" departPos="4.10" departSpeed="0.00" departDelay="0.00" arrival="205.00" arrivalLane="1o_0" arrivalPos="492.80" arrivalSpeed="9.91" duration="95.00" routeLength="995.90" waitingTime="3.00" waitingCount="1" stopTime="0.00" timeLoss="16.53" rerouteNo="0" devices="tripinfo_NS_110" vType="car" speedFactor="0.90" vaporized=""/>
    <tripinfo id="NS_123" depart="124.00" departLane="2i_0" departPos="4.10" departSpeed="0.00" departDelay="1.00" arrival="207.00" arrivalLane="1o_0" arrivalPos="492.80" arrivalSpeed="12.90" duration="83.00" routeLength="995.90" waitingTime="0.00" waitingCount="0" stopTime="0.00" timeLoss="21.97" rerouteNo="0" devices="tripinfo_NS_123" vType="car" speedFactor="1.17" vaporized=""/>
    <tripinfo id="NS_115" depart="115.00" departLane="2i_0" departPos="4.10" departSpeed="0.00" departDelay="0.00" arrival="208.00" arrivalLane="3o_0" arrivalPos="492.80" arrivalSpeed="8.61" duration="93.00" routeLength="995.70" waitingTime="0.00" waitingCount="0" stopTime="0.00" timeLoss="12.41" rerouteNo="0" devices="tripinfo_NS_115" vType="car" speedFactor="0.88" vaporized=""/>
    <tripinfo id="WE_107" depart="108.00" departLane="1i_0" departPos="4.10" departSpeed="0.00" departDelay="1.00" arrival="210.00" arrivalLane="3o_0" arrivalPos="492.80" arrivalSpeed="11.11" duration="102.00" routeLength="990.53" waitingTime="12.00" waitingCount="1" stopTime="0.00" timeLoss="37.23" rerouteNo="0" devices="tripinfo_WE_107" vType="car" speedFactor="1.09" vaporized=""/>
    <tripinfo id="WE_110" depart="111.00" departLane="1i_0" departPos="4.10" departSpeed="0.00" departDelay="1.00" arrival="212.00" arrivalLane="3o_0" arrivalPos="492.80" arrivalSpeed="10.15" duration="101.00" routeLength="990.53" waitingTime="10.00" waitingCount="1" stopTime="0.00" timeLoss="30.23" rerouteNo="0" devices="tripinfo_WE_110" vType="car" speedFactor="1.00" vaporized=""/>
    <tripinfo id="WE_117" depart="117.00" departLane="1i_0" departPos="10.10" departSpeed="0.00" departDelay="0.00" arrival="215.00" arrivalLane="3o_0" arrivalPos="492.80" arrivalSpeed="9.69" duration="98.00" routeLength="984.53" waitingTime="0.00" waitingCount="0" stopTime="0.00" timeLoss="21.65" rerouteNo="0" devices="tripinfo_WE_117" vType="truck" speedFactor="0.93" vaporized=""/>
    <tripinfo id="WE_121" depart="122.00" departLane="1i_0" departPos="4.10" departSpeed="0.00" departDelay="1.00" arrival="222.00" arrivalLane="2o_0" arrivalPos="492.80" arrivalSpeed="8.96" duration="100.00" routeLength="995.90" waitingTime="0.00" waitingCount="0" stopTime="0.00" timeLoss="16.46" rerouteNo="0" devices="tripinfo_WE_121" vType="car" speedFactor="0.85" vaporized=""/>
    <tripinfo id="NS_131" depart="131.00" departLane="2i_0" departPos="4.10" departSpeed="0.00" departDelay="0.00" arrival="241.00" arrivalLane="3o_0" arrivalPos="492.80" arrivalSpeed="11.82" duration="110.00" routeLength="995.70" waitingTime="29.00" waitingCount="1" stopTime="0.00" timeLoss="45.01" rerouteNo="0" devices="tripinfo_NS_131" vType="car" speedFactor="1.10" vaporized=""/>
    <tripinfo id="NS_149" depart="149.00" departLane="2i_0" departPos="4.10" departSpeed="0.00" departDelay="0.00" arrival="245.00" arrivalLane="1o_0" arrivalPos="492.80" arrivalSpeed="11.31" duration="96.00" routeLength="995.90" waitingTime="14.00" waitingCount="1" stopTime="0.00" timeLoss="26.43" rerouteNo="0" devices="tripinfo_NS_149" vType="car" speedFactor="1.02" vaporized=""/>
    <tripinfo id="NS_157" depart="157.00" departLane="2i_0" departPos="4.10" departSpeed="0.00" departDelay="0.00" arrival="249.00" arrivalLane="4o_0" arrivalPos="492.80" arrivalSpeed="10.72" duration="92.00" routeLength="990.53" waitingTime="6.00" waitingCount="1" stopTime="0.00" timeLoss="20.29" rerouteNo="0" devices="tripinfo_NS_157" vType="car" speedFactor="0.99" vaporized=""/>
    <tripinfo id="NS_173" depart="173.00" departLane="2i_0" departPos="4.10" departSpeed="0.00" departDelay="0.00" arrival="250.00" arrivalLane="1o_0" arrivalPos="492.80" arrivalSpeed="11.15" duration="77.00" routeLength="995.90" waitingTime="0.00" waitingCount="0" stopTime="0.00" timeLoss="7.87" rerouteNo="0" devices="tripinfo_NS_173" vType="car" speedFactor="1.02" vaporized=""/>
    <tripinfo id="WE_149" depart="149.00" departLane="1i_0" departPos="4.10" departSpeed="0.00" departDelay="0.00" arrival="254.00" arrivalLane="3o_0" arrivalPos="492.80" arrivalSpeed="11.56" duration="105.00" routeLength="990.53" waitingTime="26.00" waitingCount="1" stopTime="0.00" timeLoss="42.73" rerouteNo="0" devices="tripinfo_WE_149" vType="car" speedFactor="1.14" vaporized=""/>
    <tripinfo id="WE_125" depart="126.00" departLane="1i_0" departPos="10.10" departSpeed="0.00" departDelay="1.00" arrival="258.00" arrivalLane="4o_0" arrivalPos="492.80" arrivalSpeed="10.75" duration="132.00" routeLength="989.70" waitingTime="36.00" waitingCount="1" stopTime="0.00" timeLoss="61.57" rerouteNo="0" devices="tripinfo_WE_125" vType="truck" speedFactor="1.01" vaporized=""/>
    <tripinfo id="SN_64" depart="69.00" departLane="3i_0" departPos="4.10" departSpeed="0.00" departDelay="5.00" arrival="260.00" arrivalLane="4o_0" arrivalPos="492.80" arrivalSpeed="12.77" duration="191.00" routeLength="995.90" waitingTime="83.00" waitingCount="4" stopTime="0.00" timeLoss="130.12" rerouteNo="0" devices="tripinfo_SN_64" vType="car" speedFactor="1.17" vaporized=""/>
    <tripinfo id="WE_150" depart="152.00" departLane="1i_0" departPos="4.10" departSpeed="0.00" departDelay="2.00" arrival="263.00" arrivalLane="2o_0" arrivalPos="492.80" arrivalSpeed="10.02" duration="111.00" routeLength="995.90" waitingTime="21.00" waitingCount="1" stopTime="0.00" timeLoss="38.01" rerouteNo="0" devices="tripinfo_WE_150" vType="car" speedFactor="0.97" vaporized=""/>
    <tripinfo id="WE_153" depart="155.00" departLane="1i_0" departPos="4.10" departSpeed="0.00" departDelay="2.00" arrival="265.00" arrivalLane="2o_0" arrivalPos="492.80" arrivalSpeed="11.26" duration="110.00" routeLength="995.90" waitingTime="20.00" waitingCount="2" stopTime="0.00" timeLoss="40.04" rerouteNo="0" devices="tripinfo_WE_153" vType="car" speedFactor="1.02" vaporized=""/>
    <tripinfo id="EW_136" depart="136.00" departLane="4i_0" departPos="4.10" departSpeed="0.00" departDelay="0.00" arrival="267.00" arrivalLane="3o_0" arrivalPos="492.80" arrivalSpeed="10.28" duration="131.00" routeLength="995.90" waitingTime="45.00" waitingCount="2" stopTime="0.00" timeLoss="60.08" rerouteNo="0" devices="tripinfo_EW_136" vType="car" speedFactor="1.00" vaporized=""/>
    <tripinfo id="SN_78" depart="78.00" departLane="3i_0" departPos="4.10" departSpeed="0.00" departDelay="0.00" arrival="273.00" arrivalLane="2o_0" arrivalPos="492.80" arrivalSpeed="10.76" duration="195.00" routeLength="990.53" waitingTime="82.00" waitingCount="4" stopTime="0.00" timeLoss="123.70" rerouteNo="0" devices="tripinfo_SN_78" vType="car" speedFactor="0.99" vaporized=""/>
    <tripinfo id="WE_166" depart="166.00" departLane="1i_0" departPos="4.10" departSpeed="0.00" departDelay="0.00" arrival="275.00" arrivalLane="3o_0" arrivalPos="492.80" arrivalSpeed="9.38" duration="109.00" routeLength="990.53" waitingTime="10.00" waitingCount="2" stopTime="0.00" timeLoss="31.57" rerouteNo="0" devices="tripinfo_WE_166" vType="car" speedFactor="0.91" vaporized=""/>
    <tripinfo id="NS_197" depart="197.00" departLane="2i_0" departPos="4.10" departSpeed="0.00" departDelay="0.00" arrival="275.00" arrivalLane="4o_0" arrivalPos="492.80" arrivalSpeed="11.12" duration="78.00" routeLength="990.53" waitingTime="0.00" waitingCount="0" stopTime="0.00" timeLoss="8.00" rerouteNo="0" devices="tripinfo_NS_197" vType="car" speedFactor="1.01" vaporized=""/>
    <tripinfo id="EW_142" depart="142.00" departLane="4i_0" departPos="4.10" departSpeed="0.00" departDelay="0.00" arrival="277.00" arrivalLane="3o_0" arrivalPos="492.80" arrivalSpeed="9.99" duration="135.00" routeLength="995.90" waitingTime="41.00" waitingCount="3" stopTime="0.00" timeLoss="63.28" rerouteNo="0" devices="tripinfo_EW_142" vType="car" speedFactor="1.00" vaporized=""/>
    <tripinfo id="WE_174" depart="174.00" departLane="1i_0" departPos="4.10" departSpeed="0.00" departDelay="0.00" arrival="278.00" arrivalLane="3o_0" arrivalPos="492.80" arrivalSpeed="10.99" duration="104.00" routeLength="990.53" waitingTime="4.00" waitingCount="1" stopTime="0.00" timeLoss="35.17" rerouteNo="0" devices="tripinfo_WE_174" vType="car" speedFactor="1.02" vaporized=""/>
    <tripinfo id="WE_192" depart="192.00" departLane="1i_0" departPos="4.10" departSpeed="0.00" departDelay="0.00" arrival="280.00" arrivalLane="3o_0" arrivalPos="492.80" arrivalSpeed="11.23" duration="88.00" routeLength="990.53" waitingTime="0.00" waitingCount="0" stopTime="0.00" timeLoss="19.62" rerouteNo="0" devices="tripinfo_WE_192" vType="car" speedFactor="1.03" vaporized=""/>
    <tripinfo id="SN_91" depart="91.00" departLane="3i_0" departPos="4.10" departSpeed="0.00" departDelay="0.00" arrival="285.00" arrivalLane="1o_0" arrivalPos="492.80" arrivalSpeed="10.80" duration="194.00" routeLength="995.70" waitingTime="77.00" waitingCount="6" stopTime="0.00" timeLoss="124.79" rerouteNo="0" devices="tripinfo_SN_91" vType="car" speedFactor="1.03" vaporized=""/>
    <tripinfo id="EW_144" depart="145.00" departLane="4i_0" departPos="4.10" departSpeed="0.00" departDelay="1.00" arrival="288.00" arrivalLane="3o_0" arrivalPos="492.80" arrivalSpeed="9.79" duration="143.00" routeLength="995.90" waitingTime="38.00" waitingCount="3" stopTime="0.00" timeLoss="63.80" rerouteNo="0" devices="tripinfo_EW_144" vType="car" speedFactor="0.90" vaporized=""/>
    <tripinfo id="WE_207" depart="207.00" departLane="1i_0" departPos="4.10" departSpeed="0.00" departDelay="0.00" arrival="289.00" arrivalLane="2o_0" arrivalPos="492.80" arrivalSpeed="10.83" duration="82.00" routeLength="995.90" waitingTime="0.00" waitingCount="0" stopTime="0.00" timeLoss="10.35" rerouteNo="0" devices="tripinfo_WE_207" vType="car" speedFactor="1.00" vaporized=""/>
    <tripinfo id="WE_196" depart="196.00" departLane="1i_0" departPos="4.10" departSpeed="0.00" departDelay="0.00" arrival="290.00" arrivalLane="3o_0" arrivalPos="492.80" arrivalSpeed="10.83" duration="94.00" routeLength="990.53" waitingTime="2.00" waitingCount="1" stopTime="0.00" timeLoss="21.60" rerouteNo="0" devices="tripinfo_WE_196" vType="car" speedFactor="0.98" vaporized=""/>
    <tripinfo id="EW_151" depart="151.00" departLane="4i_0" departPos="10.10" departSpeed="0.00" departDelay="0.00" arrival="292.00" arrivalLane="3o_0" arrivalPos="492.80" arrivalSpeed="11.23" duration="141.00" routeLength="989.90" waitingTime="36.00" waitingCount="4" stopTime="0.00" timeLoss="73.08" rerouteNo="0" devices="tripinfo_EW_151" vType="truck" speedFactor="1.04" vaporized=""/>
    <tripinfo id="EW_152" depart="155.00" departLane="4i_0" departPos="4.10" departSpeed="0.00" departDelay="3.00" arrival="294.00" arrivalLane="2o_0" arrivalPos="492.80" arrivalSpeed="11.84" duration="139.00" routeLength="995.70" waitingTime="32.00" waitingCount="4" stopTime="0.00" timeLoss="75.83" rerouteNo="0" devices="tripinfo_EW_152" vType="car" speedFactor="1.12" vaporized=""/>
    <tripinfo id="NS_211" depart="211.00" departLane="2i_0" departPos="4.10" departSpeed="0.00" departDelay="0.00" arrival="297.00" arrivalLane="4o_0" arrivalPos="492.80" arrivalSpeed="9.96" duration="86.00" routeLength="990.53" waitingTime="1.00" waitingCount="1" stopTime="0.00" timeLoss="12.65" rerouteNo="0" devices="tripinfo_NS_211" vType="car" speedFactor="0.97" vaporized=""/>
    <tripinfo id="NS_215" depart="215.00" departLane="2i_0" departPos="10.10" departSpeed="0.00" departDelay="0.00" arrival="299.00" arrivalLane="4o_0" arrivalPos="492.80" arrivalSpeed="11.47" duration="84.00" routeLength="984.53" waitingTime="0.00" waitingCount="0" stopTime="0.00" timeLoss="17.58" rerouteNo="0" devices="tripinfo_NS_215" vType="truck" speedFactor="1.07" vaporized=""/>
    <tripinfo id="SN_157" depart="157.00" departLane="3i_0" departPos="10.10" departSpeed="0.00" departDelay="0.00" arrival="305.00" arrivalLane="1o_0" arrivalPos="492.80" arrivalSpeed="10.71" duration="148.00" routeLength="989.70" waitingTime="31.00" waitingCount="6" stopTime="0.00" timeLoss="74.61" rerouteNo="0" devices="tripinfo_SN_157" vType="truck" speedFactor="0.97" vaporized=""/>
    <tripinfo id="NS_221" depart="222.00" departLane="2i_0" departPos="4.10" departSpeed="0.00" departDelay="1.00" arrival="305.00" arrivalLane="3o_0" arrivalPos="492.80" arrivalSpeed="11.00" duration="83.00" routeLength="995.70" waitingTime="0.00" waitingCount="0" stopTime="0.00" timeLoss="14.59" rerouteNo="0" devices="tripinfo_NS_221" vType="car" speedFactor="1.04" vaporized=""/>
    <tripinfo id="SN_163" depart="163.00" departLane="3i_0" departPos="4.10" departSpeed="0.00" departDelay="0.00" arrival="311.00" arrivalLane="2o_0" arrivalPos="492.80" arrivalSpeed="8.99" duration="148.00" routeLength="990.53" waitingTime="24.00" waitingCount="4" stopTime="0.00" timeLoss="68.21" rerouteNo="0" devices="tripinfo_SN_163" vType="car" speedFactor="0.88" vaporized=""/>