<?xml version="1.0" encoding="UTF-8"?>

<!-- generated on 2024-05-05 17:58:17 by Eclipse SUMO sumo Version 1.19.0
<configuration xmlns:xsi="http://www.w3.org/2001/XMLSchema-instance" xsi:noNamespaceSchemaLocation="http://sumo.dlr.de/xsd/sumoConfiguration.xsd">

    <input>
        <net-file value="twoone.net.xml"/>
        <route-files value="route_gen.rou.xml"/>
    </input>

    <output>
        <tripinfo-output value="tripinfo_epi392.xml"/>
    </output>

    <report>
        <no-warnings value="true"/>
    </report>

    <traci_server>
        <remote-port value="46175"/>
    </traci_server>

</configuration>
-->

<tripinfos xmlns:xsi="http://www.w3.org/2001/XMLSchema-instance" xsi:noNamespaceSchemaLocation="http://sumo.dlr.de/xsd/tripinfo_file.xsd">
    <tripinfo id="NS_0" depart="0.00" departLane="2i_0" departPos="4.10" departSpeed="0.00" departDelay="0.00" arrival="77.00" arrivalLane="1o_0" arrivalPos="492.80" arrivalSpeed="10.50" duration="77.00" routeLength="995.90" waitingTime="0.00" waitingCount="0" stopTime="0.00" timeLoss="10.09" rerouteNo="0" devices="tripinfo_NS_0" vType="car" speedFactor="1.06" vaporized=""/>
    <tripinfo id="NS_5" depart="5.00" departLane="2i_0" departPos="4.10" departSpeed="0.00" departDelay="0.00" arrival="89.00" arrivalLane="1o_0" arrivalPos="492.80" arrivalSpeed="10.32" duration="84.00" routeLength="995.90" waitingTime="0.00" waitingCount="0" stopTime="0.00" timeLoss="8.51" rerouteNo="0" devices="tripinfo_NS_5" vType="car" speedFactor="0.94" vaporized=""/>
    <tripinfo id="SN_6" depart="6.00" departLane="3i_0" departPos="4.10" departSpeed="0.00" departDelay="0.00" arrival="91.00" arrivalLane="1o_0" arrivalPos="492.80" arrivalSpeed="9.94" duration="85.00" routeLength="995.70" waitingTime="1.00" waitingCount="1" stopTime="0.00" timeLoss="14.66" rerouteNo="0" devices="tripinfo_SN_6" vType="car" speedFactor="1.01" vaporized=""/>
    <tripinfo id="WE_9" depart="9.00" departLane="1i_0" departPos="4.10" departSpeed="0.00" departDelay="0.00" arrival="91.00" arrivalLane="2o_0" arrivalPos="492.80" arrivalSpeed="10.43" duration="82.00" routeLength="995.90" waitingTime="2.00" waitingCount="1" stopTime="0.00" timeLoss="12.54" rerouteNo="0" devices="tripinfo_WE_9" vType="car" speedFactor="1.03" vaporized=""/>
    <tripinfo id="NS_8" depart="8.00" departLane="2i_0" departPos="4.10" departSpeed="0.00" departDelay="0.00" arrival="92.00" arrivalLane="3o_0" arrivalPos="492.80" arrivalSpeed="11.04" duration="84.00" routeLength="995.70" waitingTime="2.00" waitingCount="1" stopTime="0.00" timeLoss="18.35" rerouteNo="0" devices="tripinfo_NS_8" vType="car" speedFactor="1.08" vaporized=""/>
    <tripinfo id="SN_11" depart="11.00" departLane="3i_0" departPos="4.10" departSpeed="0.00" departDelay="0.00" arrival="92.00" arrivalLane="2o_0" arrivalPos="492.80" arrivalSpeed="10.45" duration="81.00" routeLength="990.53" waitingTime="0.00" waitingCount="0" stopTime="0.00" timeLoss="13.85" rerouteNo="0" devices="tripinfo_SN_11" vType="car" speedFactor="1.05" vaporized=""/>
    <tripinfo id="WE_14" depart="14.00" departLane="1i_0" departPos="4.10" departSpeed="0.00" departDelay="0.00" arrival="106.00" arrivalLane="2o_0" arrivalPos="492.80" arrivalSpeed="9.01" duration="92.00" routeLength="995.90" waitingTime="0.00" waitingCount="0" stopTime="0.00" timeLoss="11.85" rerouteNo="0" devices="tripinfo_WE_14" vType="car" speedFactor="0.89" vaporized=""/>
    <tripinfo id="WE_11" depart="12.00" departLane="1i_0" departPos="4.10" departSpeed="0.00" departDelay="1.00" arrival="108.00" arrivalLane="3o_0" arrivalPos="492.80" arrivalSpeed="8.71" duration="96.00" routeLength="990.53" waitingTime="0.00" waitingCount="0" stopTime="0.00" timeLoss="10.78" rerouteNo="0" devices="tripinfo_WE_11" vType="car" speedFactor="0.83" vaporized=""/>
    <tripinfo id="EW_27" depart="27.00" departLane="4i_0" departPos="4.10" departSpeed="0.00" departDelay="0.00" arrival="110.00" arrivalLane="3o_0" arrivalPos="492.80" arrivalSpeed="10.69" duration="83.00" routeLength="995.90" waitingTime="0.00" waitingCount="0" stopTime="0.00" timeLoss="10.62" rerouteNo="0" devices="tripinfo_EW_27" vType="car" speedFactor="0.99" vaporized=""/>
    <tripinfo id="SN_16" depart="16.00" departLane="3i_0" departPos="4.10" departSpeed="0.00" departDelay="0.00" arrival="111.00" arrivalLane="1o_0" arrivalPos="492.80" arrivalSpeed="8.54" duration="95.00" routeLength="995.70" waitingTime="0.00" waitingCount="0" stopTime="0.00" timeLoss="12.15" rerouteNo="0" devices="tripinfo_SN_16" vType="car" speedFactor="0.86" vaporized=""/>
    <tripinfo id="NS_25" depart="25.00" departLane="2i_0" departPos="4.10" departSpeed="0.00" departDelay="0.00" arrival="113.00" arrivalLane="1o_0" arrivalPos="492.80" arrivalSpeed="10.46" duration="88.00" routeLength="995.90" waitingTime="0.00" waitingCount="0" stopTime="0.00" timeLoss="19.73" rerouteNo="0" devices="tripinfo_NS_25" vType="car" speedFactor="1.05" vaporized=""/>
    <tripinfo id="SN_21" depart="21.00" departLane="3i_0" departPos="4.10" departSpeed="0.00" departDelay="0.00" arrival="114.00" arrivalLane="1o_0" arrivalPos="492.80" arrivalSpeed="11.21" duration="93.00" routeLength="995.70" waitingTime="0.00" waitingCount="0" stopTime="0.00" timeLoss="28.13" rerouteNo="0" devices="tripinfo_SN_21" vType="car" speedFactor="1.09" vaporized=""/>
    <tripinfo id="WE_16" depart="18.00" departLane="1i_0" departPos="10.10" departSpeed="0.00" departDelay="2.00" arrival="116.00" arrivalLane="2o_0" arrivalPos="492.80" arrivalSpeed="10.74" duration="98.00" routeLength="989.90" waitingTime="3.00" waitingCount="2" stopTime="0.00" timeLoss="25.29" rerouteNo="0" devices="tripinfo_WE_16" vType="truck" speedFactor="0.97" vaporized=""/>
    <tripinfo id="WE_25" depart="25.00" departLane="1i_0" departPos="10.10" departSpeed="0.00" departDelay="0.00" arrival="119.00" arrivalLane="3o_0" arrivalPos="492.80" arrivalSpeed="10.98" duration="94.00" routeLength="984.53" waitingTime="0.00" waitingCount="0" stopTime="0.00" timeLoss="24.56" rerouteNo="0" devices="tripinfo_WE_25" vType="truck" speedFactor="1.01" vaporized=""/>
    <tripinfo id="EW_49" depart="49.00" departLane="4i_0" departPos="4.10" departSpeed="0.00" departDelay="0.00" arrival="124.00" arrivalLane="2o_0" arrivalPos="492.80" arrivalSpeed="11.61" duration="75.00" routeLength="995.70" waitingTime="1.00" waitingCount="1" stopTime="0.00" timeLoss="13.42" rerouteNo="0" devices="tripinfo_EW_49" vType="car" speedFactor="1.16" vaporized=""/>
    <tripinfo id="NS_36" depart="36.00" departLane="2i_0" departPos="4.10" departSpeed="0.00" departDelay="0.00" arrival="125.00" arrivalLane="4o_0" arrivalPos="492.80" arrivalSpeed="9.34" duration="89.00" routeLength="990.53" waitingTime="0.00" waitingCount="0" stopTime="0.00" timeLoss="8.55" rerouteNo="0" devices="tripinfo_NS_36" vType="car" speedFactor="0.88" vaporized=""/>
    <tripinfo id="SN_36" depart="36.00" departLane="3i_0" departPos="4.10" departSpeed="0.00" departDelay="0.00" arrival="127.00" arrivalLane="4o_0" arrivalPos="492.80" arrivalSpeed="9.83" duration="91.00" routeLength="995.90" waitingTime="0.00" waitingCount="0" stopTime="0.00" timeLoss="15.69" rerouteNo="0" devices="tripinfo_SN_36" vType="car" speedFactor="0.94" vaporized=""/>
    <tripinfo id="WE_26" depart="30.00" departLane="1i_0" departPos="10.10" departSpeed="0.00" departDelay="4.00" arrival="129.00" arrivalLane="4o_0" arrivalPos="492.80" arrivalSpeed="11.10" duration="99.00" routeLength="989.70" waitingTime="0.00" waitingCount="0" stopTime="0.00" timeLoss="32.14" rerouteNo="0" devices="tripinfo_WE_26" vType="truck" speedFactor="1.06" vaporized=""/>
    <tripinfo id="WE_35" depart="35.00" departLane="1i_0" departPos="4.10" departSpeed="0.00" departDelay="0.00" arrival="131.00" arrivalLane="3o_0" arrivalPos="492.80" arrivalSpeed="9.60" duration="96.00" routeLength="990.53" waitingTime="0.00" waitingCount="0" stopTime="0.00" timeLoss="20.25" rerouteNo="0" devices="tripinfo_WE_35" vType="car" speedFactor="0.93" vaporized=""/>
    <tripinfo id="WE_52" depart="52.00" departLane="1i_0" departPos="4.10" departSpeed="0.00" departDelay="0.00" arrival="134.00" arrivalLane="2o_0" arrivalPos="492.80" arrivalSpeed="10.85" duration="82.00" routeLength="995.90" waitingTime="0.00" waitingCount="0" stopTime="0.00" timeLoss="12.14" rerouteNo="0" devices="tripinfo_WE_52" vType="car" speedFactor="1.02" vaporized=""/>
    <tripinfo id="NS_52" depart="52.00" departLane="2i_0" departPos="4.10" departSpeed="0.00" departDelay="0.00" arrival="135.00" arrivalLane="4o_0" arrivalPos="492.80" arrivalSpeed="10.42" duration="83.00" routeLength="990.53" waitingTime="1.00" waitingCount="1" stopTime="0.00" timeLoss="12.67" rerouteNo="0" devices="tripinfo_NS_52" vType="car" speedFactor="1.01" vaporized=""/>
    <tripinfo id="WE_42" depart="42.00" departLane="1i_0" departPos="4.10" departSpeed="0.00" departDelay="0.00" arrival="136.00" arrivalLane="3o_0" arrivalPos="492.80" arrivalSpeed="9.40" duration="94.00" routeLength="990.53" waitingTime="1.00" waitingCount="1" stopTime="0.00" timeLoss="18.75" rerouteNo="0" devices="tripinfo_WE_42" vType="car" speedFactor="0.94" vaporized=""/>
    <tripinfo id="WE_53" depart="55.00" departLane="1i_0" departPos="4.10" departSpeed="0.00" departDelay="2.00" arrival="141.00" arrivalLane="4o_0" arrivalPos="492.80" arrivalSpeed="9.88" duration="86.00" routeLength="995.70" waitingTime="0.00" waitingCount="0" stopTime="0.00" timeLoss="13.08" rerouteNo="0" devices="tripinfo_WE_53" vType="car" speedFactor="0.97" vaporized=""/>
    <tripinfo id="EW_57" depart="57.00" departLane="4i_0" departPos="4.10" departSpeed="0.00" departDelay="0.00" arrival="147.00" arrivalLane="3o_0" arrivalPos="492.80" arrivalSpeed="9.54" duration="90.00" routeLength="995.90" waitingTime="0.00" waitingCount="0" stopTime="0.00" timeLoss="10.31" rerouteNo="0" devices="tripinfo_EW_57" vType="car" speedFactor="0.89" vaporized=""/>
    <tripinfo id="SN_63" depart="63.00" departLane="3i_0" departPos="4.10" departSpeed="0.00" departDelay="0.00" arrival="149.00" arrivalLane="1o_0" arrivalPos="492.80" arrivalSpeed="9.44" duration="86.00" routeLength="995.70" waitingTime="0.00" waitingCount="0" stopTime="0.00" timeLoss="11.02" rerouteNo="0" devices="tripinfo_SN_63" vType="car" speedFactor="0.95" vaporized=""/>
    <tripinfo id="EW_65" depart="65.00" departLane="4i_0" departPos="4.10" departSpeed="0.00" departDelay="0.00" arrival="149.00" arrivalLane="3o_0" arrivalPos="492.80" arrivalSpeed="11.38" duration="84.00" routeLength="995.90" waitingTime="0.00" waitingCount="0" stopTime="0.00" timeLoss="20.96" rerouteNo="0" devices="tripinfo_EW_65" vType="car" speedFactor="1.13" vaporized=""/>
    <tripinfo id="WE_63" depart="63.00" departLane="1i_0" departPos="10.10" departSpeed="0.00" departDelay="0.00" arrival="151.00" arrivalLane="3o_0" arrivalPos="492.80" arrivalSpeed="10.25" duration="88.00" routeLength="984.53" waitingTime="0.00" waitingCount="0" stopTime="0.00" timeLoss="13.12" rerouteNo="0" devices="tripinfo_WE_63" vType="truck" speedFactor="0.94" vaporized=""/>
    <tripinfo id="SN_70" depart="70.00" departLane="3i_0" departPos="10.10" departSpeed="0.00" departDelay="0.00" arrival="153.00" arrivalLane="4o_0" arrivalPos="492.80" arrivalSpeed="12.04" duration="83.00" routeLength="989.90" waitingTime="0.00" waitingCount="0" stopTime="0.00" timeLoss="16.64" rerouteNo="0" devices="tripinfo_SN_70" vType="truck" speedFactor="1.09" vaporized=""/>
    <tripinfo id="NS_63" depart="65.00" departLane="2i_0" departPos="4.10" departSpeed="0.00" departDelay="2.00" arrival="159.00" arrivalLane="1o_0" arrivalPos="492.80" arrivalSpeed="9.51" duration="94.00" routeLength="995.90" waitingTime="0.00" waitingCount="0" stopTime="0.00" timeLoss="16.25" rerouteNo="0" devices="tripinfo_NS_63" vType="car" speedFactor="0.92" vaporized=""/>
    <tripinfo id="SN_65" depart="66.00" departLane="3i_0" departPos="4.10" departSpeed="0.00" departDelay="1.00" arrival="159.00" arrivalLane="2o_0" arrivalPos="492.80" arrivalSpeed="9.15" duration="93.00" routeLength="990.53" waitingTime="6.00" waitingCount="1" stopTime="0.00" timeLoss="17.38" rerouteNo="0" devices="tripinfo_SN_65" vType="car" speedFactor="0.93" vaporized=""/>
    <tripinfo id="SN_71" depart="74.00" departLane="3i_0" departPos="4.10" departSpeed="0.00" departDelay="3.00" arrival="160.00" arrivalLane="1o_0" arrivalPos="492.80" arrivalSpeed="11.84" duration="86.00" routeLength="995.70" waitingTime="0.00" waitingCount="0" stopTime="0.00" timeLoss="24.73" rerouteNo="0" devices="tripinfo_SN_71" vType="car" speedFactor="1.15" vaporized=""/>
    <tripinfo id="NS_76" depart="76.00" departLane="2i_0" departPos="4.10" departSpeed="0.00" departDelay="0.00" arrival="162.00" arrivalLane="1o_0" arrivalPos="492.80" arrivalSpeed="12.75" duration="86.00" routeLength="995.90" waitingTime="1.00" waitingCount="1" stopTime="0.00" timeLoss="25.37" rerouteNo="0" devices="tripinfo_NS_76" vType="car" speedFactor="1.17" vaporized=""/>
    <tripinfo id="NS_62" depart="62.00" departLane="2i_0" departPos="4.10" departSpeed="0.00" departDelay="0.00" arrival="163.00" arrivalLane="3o_0" arrivalPos="492.80" arrivalSpeed="8.91" duration="101.00" routeLength="995.70" waitingTime="0.00" waitingCount="0" stopTime="0.00" timeLoss="15.34" rerouteNo="0" devices="tripinfo_NS_62" vType="car" speedFactor="0.83" vaporized=""/>
    <tripinfo id="NS_73" depart="73.00" departLane="2i_0" departPos="4.10" departSpeed="0.00" departDelay="0.00" arrival="163.00" arrivalLane="4o_0" arrivalPos="492.80" arrivalSpeed="10.76" duration="90.00" routeLength="990.53" waitingTime="2.00" waitingCount="2" stopTime="0.00" timeLoss="19.30" rerouteNo="0" devices="tripinfo_NS_73" vType="car" speedFactor="1.01" vaporized=""/>
    <tripinfo id="WE_80" depart="80.00" departLane="1i_0" departPos="4.10" departSpeed="0.00" departDelay="0.00" arrival="164.00" arrivalLane="2o_0" arrivalPos="492.80" arrivalSpeed="10.63" duration="84.00" routeLength="995.90" waitingTime="1.00" waitingCount="1" stopTime="0.00" timeLoss="13.07" rerouteNo="0" devices="tripinfo_WE_80" vType="car" speedFactor="0.99" vaporized=""/>
    <tripinfo id="WE_85" depart="85.00" departLane="1i_0" departPos="4.10" departSpeed="0.00" departDelay="0.00" arrival="166.00" arrivalLane="2o_0" arrivalPos="492.80" arrivalSpeed="11.88" duration="81.00" routeLength="995.90" waitingTime="0.00" waitingCount="0" stopTime="0.00" timeLoss="20.89" rerouteNo="0" devices="tripinfo_WE_85" vType="car" speedFactor="1.18" vaporized=""/>
    <tripinfo id="EW_91" depart="91.00" departLane="4i_0" departPos="4.10" departSpeed="0.00" departDelay="0.00" arrival="167.00" arrivalLane="1o_0" arrivalPos="492.80" arrivalSpeed="11.04" duration="76.00" routeLength="990.53" waitingTime="0.00" waitingCount="0" stopTime="0.00" timeLoss="7.43" rerouteNo="0" devices="tripinfo_EW_91" vType="car" speedFactor="1.03" vaporized=""/>
    <tripinfo id="SN_81" depart="81.00" departLane="3i_0" departPos="10.10" departSpeed="0.00" departDelay="0.00" arrival="169.00" arrivalLane="2o_0" arrivalPos="492.80" arrivalSpeed="10.85" duration="88.00" routeLength="984.53" waitingTime="0.00" waitingCount="0" stopTime="0.00" timeLoss="18.05" rerouteNo="0" devices="tripinfo_SN_81" vType="truck" speedFactor="1.01" vaporized=""/>
    <tripinfo id="EW_93" depart="93.00" departLane="4i_0" departPos="4.10" departSpeed="0.00" departDelay="0.00" arrival="169.00" arrivalLane="1o_0" arrivalPos="492.80" arrivalSpeed="12.05" duration="76.00" routeLength="990.53" waitingTime="0.00" waitingCount="0" stopTime="0.00" timeLoss="11.66" rerouteNo="0" devices="tripinfo_EW_93" vType="car" speedFactor="1.09" vaporized=""/>
    <tripinfo id="NS_86" depart="88.00" departLane="2i_0" departPos="4.10" departSpeed="0.00" departDelay="2.00" arrival="173.00" arrivalLane="4o_0" arrivalPos="492.80" arrivalSpeed="12.22" duration="85.00" routeLength="990.53" waitingTime="0.00" waitingCount="0" stopTime="0.00" timeLoss="21.18" rerouteNo="0" devices="tripinfo_NS_86" vType="car" speedFactor="1.10" vaporized=""/>
    <tripinfo id="NS_84" depart="84.00" departLane="2i_0" departPos="10.10" departSpeed="0.00" departDelay="0.00" arrival="176.00" arrivalLane="3o_0" arrivalPos="492.80" arrivalSpeed="10.39" duration="92.00" routeLength="989.70" waitingTime="0.00" waitingCount="0" stopTime="0.00" timeLoss="20.79" rerouteNo="0" devices="tripinfo_NS_84" vType="truck" speedFactor="0.99" vaporized=""/>
    <tripinfo id="SN_99" depart="99.00" departLane="3i_0" departPos="4.10" departSpeed="0.00" departDelay="0.00" arrival="177.00" arrivalLane="4o_0" arrivalPos="492.80" arrivalSpeed="11.51" duration="78.00" routeLength="995.90" waitingTime="0.00" waitingCount="0" stopTime="0.00" timeLoss="12.43" rerouteNo="0" devices="tripinfo_SN_99" vType="car" speedFactor="1.09" vaporized=""/>
    <tripinfo id="NS_91" depart="92.00" departLane="2i_0" departPos="4.10" departSpeed="0.00" departDelay="1.00" arrival="185.00" arrivalLane="4o_0" arrivalPos="492.80" arrivalSpeed="10.35" duration="93.00" routeLength="990.53" waitingTime="0.00" waitingCount="0" stopTime="0.00" timeLoss="19.47" rerouteNo="0" devices="tripinfo_NS_91" vType="car" speedFactor="0.96" vaporized=""/>
    <tripinfo id="NS_96" depart="96.00" departLane="2i_0" departPos="4.10" departSpeed="0.00" departDelay="0.00" arrival="186.00" arrivalLane="1o_0" arrivalPos="492.80" arrivalSpeed="11.20" duration="90.00" routeLength="995.90" waitingTime="0.00" waitingCount="0" stopTime="0.00" timeLoss="21.65" rerouteNo="0" devices="tripinfo_NS_96" vType="car" speedFactor="1.04" vaporized=""/>
    <tripinfo id="SN_101" depart="101.00" departLane="3i_0" departPos="4.10" departSpeed="0.00" departDelay="0.00" arrival="186.00" arrivalLane="2o_0" arrivalPos="492.80" arrivalSpeed="9.98" duration="85.00" routeLength="990.53" waitingTime="3.00" waitingCount="1" stopTime="0.00" timeLoss="14.25" rerouteNo="0" devices="tripinfo_SN_101" vType="car" speedFactor="1.00" vaporized=""/>
    <tripinfo id="WE_98" depart="98.00" departLane="1i_0" departPos="4.10" departSpeed="0.00" departDelay="0.00" arrival="188.00" arrivalLane="2o_0" arrivalPos="492.80" arrivalSpeed="10.90" duration="90.00" routeLength="995.90" waitingTime="4.00" waitingCount="1" stopTime="0.00" timeLoss="21.74" rerouteNo="0" devices="tripinfo_WE_98" vType="car" speedFactor="1.04" vaporized=""/>
    <tripinfo id="WE_90" depart="91.00" departLane="1i_0" departPos="4.10" departSpeed="0.00" departDelay="1.00" arrival="189.00" arrivalLane="3o_0" arrivalPos="492.80" arrivalSpeed="8.78" duration="98.00" routeLength="990.53" waitingTime="9.00" waitingCount="1" stopTime="0.00" timeLoss="19.83" rerouteNo="0" devices="tripinfo_WE_90" vType="car" speedFactor="0.90" vaporized=""/>
    <tripinfo id="EW_105" depart="105.00" departLane="4i_0" departPos="4.10" departSpeed="0.00" departDelay="0.00" arrival="197.00" arrivalLane="3o_0" arrivalPos="492.80" arrivalSpeed="9.62" duration="92.00" routeLength="995.90" waitingTime="0.00" waitingCount="0" stopTime="0.00" timeLoss="13.28" rerouteNo="0" devices="tripinfo_EW_105" vType="car" speedFactor="0.90" vaporized=""/>
    <tripinfo id="SN_107" depart="110.00" departLane="3i_0" departPos="10.10" departSpeed="0.00" departDelay="3.00" arrival="197.00" arrivalLane="4o_0" arrivalPos="492.80" arrivalSpeed="10.16" duration="87.00" routeLength="989.90" waitingTime="0.00" waitingCount="0" stopTime="0.00" timeLoss="11.87" rerouteNo="0" devices="tripinfo_SN_107" vType="truck" speedFactor="0.94" vaporized=""/>
    <tripinfo id="EW_121" depart="121.00" departLane="4i_0" departPos="4.10" departSpeed="0.00" departDelay="0.00" arrival="201.00" arrivalLane="2o_0" arrivalPos="492.80" arrivalSpeed="11.84" duration="80.00" routeLength="995.70" waitingTime="5.00" waitingCount="2" stopTime="0.00" timeLoss="18.97" rerouteNo="0" devices="tripinfo_EW_121" vType="car" speedFactor="1.17" vaporized=""/>
    <tripinfo id="EW_110" depart="110.00" departLane="4i_0" departPos="4.10" departSpeed="0.00" departDelay="0.00" arrival="203.00" arrivalLane="1o_0" arrivalPos="492.80" arrivalSpeed="8.42" duration="93.00" routeLength="990.53" waitingTime="0.00" waitingCount="0" stopTime="0.00" timeLoss="10.05" rerouteNo="0" devices="tripinfo_EW_110" vType="car" speedFactor="0.85" vaporized=""/>
    <tripinfo id="WE_139" depart="139.00" departLane="1i_0" departPos="4.10" departSpeed="0.00" departDelay="0.00" arrival="209.00" arrivalLane="3o_0" arrivalPos="492.80" arrivalSpeed="11.42" duration="70.00" routeLength="990.53" waitingTime="0.00" waitingCount="0" stopTime="0.00" timeLoss="8.17" rerouteNo="0" devices="tripinfo_WE_139" vType="car" speedFactor="1.14" vaporized=""/>
    <tripinfo id="SN_109" depart="114.00" departLane="3i_0" departPos="4.10" departSpeed="0.00" departDelay="5.00" arrival="211.00" arrivalLane="4o_0" arrivalPos="492.80" arrivalSpeed="9.38" duration="97.00" routeLength="995.90" waitingTime="0.00" waitingCount="0" stopTime="0.00" timeLoss="13.81" rerouteNo="0" devices="tripinfo_SN_109" vType="car" speedFactor="0.85" vaporized=""/>
    <tripinfo id="WE_122" depart="122.00" departLane="1i_0" departPos="4.10" departSpeed="0.00" departDelay="0.00" arrival="213.00" arrivalLane="4o_0" arrivalPos="492.80" arrivalSpeed="11.07" duration="91.00" routeLength="995.70" waitingTime="0.00" waitingCount="0" stopTime="0.00" timeLoss="21.15" rerouteNo="0" devices="tripinfo_WE_122" vType="car" speedFactor="1.02" vaporized=""/>
    <tripinfo id="WE_131" depart="131.00" departLane="1i_0" departPos="4.10" departSpeed="0.00" departDelay="0.00" arrival="215.00" arrivalLane="4o_0" arrivalPos="492.80" arrivalSpeed="10.77" duration="84.00" routeLength="995.70" waitingTime="0.00" waitingCount="0" stopTime="0.00" timeLoss="12.77" rerouteNo="0" devices="tripinfo_WE_131" vType="car" speedFactor="1.00" vaporized=""/>
    <tripinfo id="SN_127" depart="127.00" departLane="3i_0" departPos="4.10" departSpeed="0.00" departDelay="0.00" arrival="217.00" arrivalLane="2o_0" arrivalPos="492.80" arrivalSpeed="11.67" duration="90.00" routeLength="990.53" waitingTime="10.00" waitingCount="1" stopTime="0.00" timeLoss="25.33" rerouteNo="0" devices="tripinfo_SN_127" vType="car" speedFactor="1.10" vaporized=""/>
    <tripinfo id="NS_143" depart="143.00" departLane="2i_0" departPos="4.10" departSpeed="0.00" departDelay="0.00" arrival="220.00" arrivalLane="4o_0" arrivalPos="492.80" arrivalSpeed="10.51" duration="77.00" routeLength="990.53" waitingTime="0.00" waitingCount="0" stopTime="0.00" timeLoss="7.98" rerouteNo="0" devices="tripinfo_NS_143" vType="car" speedFactor="1.02" vaporized=""/>
    <tripinfo id="EW_136" depart="136.00" departLane="4i_0" departPos="4.10" departSpeed="0.00" departDelay="0.00" arrival="221.00" arrivalLane="3o_0" arrivalPos="492.80" arrivalSpeed="10.51" duration="85.00" routeLength="995.90" waitingTime="1.00" waitingCount="1" stopTime="0.00" timeLoss="13.93" rerouteNo="0" devices="tripinfo_EW_136" vType="car" speedFactor="1.00" vaporized=""/>
    <tripinfo id="EW_137" depart="141.00" departLane="4i_0" departPos="4.10" departSpeed="0.00" departDelay="4.00" arrival="229.00" arrivalLane="1o_0" arrivalPos="492.80" arrivalSpeed="8.90" duration="88.00" routeLength="990.53" waitingTime="0.00" waitingCount="0" stopTime="0.00" timeLoss="8.96" rerouteNo="0" devices="tripinfo_EW_137" vType="car" speedFactor="0.90" vaporized=""/>
    <tripinfo id="WE_153" depart="153.00" departLane="1i_0" departPos="4.10" departSpeed="0.00" departDelay="0.00" arrival="230.00" arrivalLane="3o_0" arrivalPos="492.80" arrivalSpeed="12.01" duration="77.00" routeLength="990.53" waitingTime="0.00" waitingCount="0" stopTime="0.00" timeLoss="11.51" rerouteNo="0" devices="tripinfo_WE_153" vType="car" speedFactor="1.08" vaporized=""/>
    <tripinfo id="EW_154" depart="154.00" departLane="4i_0" departPos="4.10" departSpeed="0.00" departDelay="0.00" arrival="230.00" arrivalLane="1o_0" arrivalPos="492.80" arrivalSpeed="10.22" duration="76.00" routeLength="990.53" waitingTime="0.00" waitingCount="0" stopTime="0.00" timeLoss="13.20" rerouteNo="0" devices="tripinfo_EW_154" vType="car" speedFactor="1.12" vaporized=""/>
    <tripinfo id="SN_151" depart="151.00" departLane="3i_0" departPos="4.10" departSpeed="0.00" departDelay="0.00" arrival="235.00" arrivalLane="1o_0" arrivalPos="492.80" arrivalSpeed="9.64" duration="84.00" routeLength="995.70" waitingTime="0.00" waitingCount="0" stopTime="0.00" timeLoss="10.70" rerouteNo="0" devices="tripinfo_SN_151" vType="car" speedFactor="0.97" vaporized=""/>
    <tripinfo id="NS_154" depart="154.00" departLane="2i_0" departPos="10.10" departSpeed="0.00" departDelay="0.00" arrival="239.00" arrivalLane="3o_0" arrivalPos="492.80" arrivalSpeed="10.73" duration="85.00" routeLength="989.70" waitingTime="0.00" waitingCount="0" stopTime="0.00" timeLoss="15.03" rerouteNo="0" devices="tripinfo_NS_154" vType="truck" speedFactor="1.01" vaporized=""/>
    <tripinfo id="SN_155" depart="155.00" departLane="3i_0" departPos="4.10" departSpeed="0.00" departDelay="0.00" arrival="244.00" arrivalLane="2o_0" arrivalPos="492.80" arrivalSpeed="10.48" duration="89.00" routeLength="990.53" waitingTime="7.00" waitingCount="1" stopTime="0.00" timeLoss="17.76" rerouteNo="0" devices="tripinfo_SN_155" vType="car" speedFactor="0.99" vaporized=""/>
    <tripinfo id="WE_160" depart="160.00" departLane="1i_0" departPos="4.10" departSpeed="0.00" departDelay="0.00" arrival="245.00" arrivalLane="4o_0" arrivalPos="492.80" arrivalSpeed="9.55" duration="85.00" routeLength="995.70" waitingTime="0.00" waitingCount="0" stopTime="0.00" timeLoss="9.18" rerouteNo="0" devices="tripinfo_WE_160" vType="car" speedFactor="0.94" vaporized=""/>
    <tripinfo id="WE_167" depart="167.00" departLane="1i_0" departPos="4.10" departSpeed="0.00" departDelay="0.00" arrival="253.00" arrivalLane="3o_0" arrivalPos="492.80" arrivalSpeed="9.03" duration="86.00" routeLength="990.53" waitingTime="0.00" waitingCount="0" stopTime="0.00" timeLoss="8.36" rerouteNo="0" devices="tripinfo_WE_167" vType="car" speedFactor="0.91" vaporized=""/>
    <tripinfo id="WE_164" depart="164.00" departLane="1i_0" departPos="4.10" departSpeed="0.00" departDelay="0.00" arrival="254.00" arrivalLane="2o_0" arrivalPos="492.80" arrivalSpeed="9.70" duration="90.00" routeLength="995.90" waitingTime="0.00" waitingCount="0" stopTime="0.00" timeLoss="9.59" rerouteNo="0" devices="tripinfo_WE_164" vType="car" speedFactor="0.88" vaporized=""/>
    <tripinfo id="NS_169" depart="169.00" departLane="2i_0" departPos="4.10" departSpeed="0.00" departDelay="0.00" arrival="254.00" arrivalLane="3o_0" arrivalPos="492.80" arrivalSpeed="10.72" duration="85.00" routeLength="995.70" waitingTime="0.00" waitingCount="0" stopTime="0.00" timeLoss="17.04" rerouteNo="0" devices="tripinfo_NS_169" vType="car" speedFactor="1.04" vaporized=""/>
    <tripinfo id="EW_181" depart="181.00" departLane="4i_0" departPos="4.10" departSpeed="0.00" departDelay="0.00" arrival="264.00" arrivalLane="1o_0" arrivalPos="492.80" arrivalSpeed="10.81" duration="83.00" routeLength="990.53" waitingTime="1.00" waitingCount="1" stopTime="0.00" timeLoss="14.03" rerouteNo="0" devices="tripinfo_EW_181" vType="car" speedFactor="1.02" vaporized=""/>
    <tripinfo id="SN_164" depart="164.00" departLane="3i_0" departPos="4.10" departSpeed="0.00" departDelay="0.00" arrival="271.00" arrivalLane="4o_0" arrivalPos="492.80" arrivalSpeed="9.51" duration="107.00" routeLength="995.90" waitingTime="18.00" waitingCount="1" stopTime="0.00" timeLoss="29.01" rerouteNo="0" devices="tripinfo_SN_164" vType="car" speedFactor="0.91" vaporized=""/>
    <tripinfo id="SN_171" depart="171.00" departLane="3i_0" departPos="4.10" departSpeed="0.00" departDelay="0.00" arrival="273.00" arrivalLane="4o_0" arrivalPos="492.80" arrivalSpeed="11.28" duration="102.00" routeLength="995.90" waitingTime="13.00" waitingCount="1" stopTime="0.00" timeLoss="32.64" rerouteNo="0" devices="tripinfo_SN_171" vType="car" speedFactor="1.02" vaporized=""/>
    <tripinfo id="EW_182" depart="185.00" departLane="4i_0" departPos="4.10" departSpeed="0.00" departDelay="3.00" arrival="275.00" arrivalLane="2o_0" arrivalPos="492.80" arrivalSpeed="9.59" duration="90.00" routeLength="995.70" waitingTime="1.00" waitingCount="1" stopTime="0.00" timeLoss="16.66" rerouteNo="0" devices="tripinfo_EW_182" vType="car" speedFactor="0.97" vaporized=""/>
    <tripinfo id="WE_197" depart="197.00" departLane="1i_0" departPos="4.10" departSpeed="0.00" departDelay="0.00" arrival="278.00" arrivalLane="2o_0" arrivalPos="492.80" arrivalSpeed="10.95" duration="81.00" routeLength="995.90" waitingTime="0.00" waitingCount="0" stopTime="0.00" timeLoss="12.60" rerouteNo="0" devices="tripinfo_WE_197" vType="car" speedFactor="1.03" vaporized=""/>
    <tripinfo id="WE_190" depart="190.00" departLane="1i_0" departPos="4.10" departSpeed="0.00" departDelay="0.00" arrival="279.00" arrivalLane="4o_0" arrivalPos="492.80" arrivalSpeed="10.20" duration="89.00" routeLength="995.70" waitingTime="0.00" waitingCount="0" stopTime="0.00" timeLoss="14.85" rerouteNo="0" devices="tripinfo_WE_190" vType="car" speedFactor="0.96" vaporized=""/>
    <tripinfo id="WE_191" depart="193.00" departLane="1i_0" departPos="4.10" departSpeed="0.00" departDelay="2.00" arrival="281.00" arrivalLane="4o_0" arrivalPos="492.80" arrivalSpeed="10.21" duration="88.00" routeLength="995.70" waitingTime="0.00" waitingCount="0" stopTime="0.00" timeLoss="16.04" rerouteNo="0" devices="tripinfo_WE_191" vType="car" speedFactor="0.98" vaporized=""/>
    <tripinfo id="WE_201" depart="203.00" departLane="1i_0" departPos="4.10" departSpeed="0.00" departDelay="2.00" arrival="282.00" arrivalLane="3o_0" arrivalPos="492.80" arrivalSpeed="10.74" duration="79.00" routeLength="990.53" waitingTime="0.00" waitingCount="0" stopTime="0.00" timeLoss="8.73" rerouteNo="0" devices="tripinfo_WE_201" vType="car" speedFactor="1.01" vaporized=""/>