<?xml version="1.0" encoding="UTF-8"?>

<!-- generated on 2024-05-05 16:10:53 by Eclipse SUMO sumo Version 1.19.0
<configuration xmlns:xsi="http://www.w3.org/2001/XMLSchema-instance" xsi:noNamespaceSchemaLocation="http://sumo.dlr.de/xsd/sumoConfiguration.xsd">

    <input>
        <net-file value="twoone.net.xml"/>
        <route-files value="route_gen.rou.xml"/>
    </input>

    <output>
        <tripinfo-output value="tripinfo_epi110.xml"/>
    </output>

    <report>
        <no-warnings value="true"/>
    </report>

    <traci_server>
        <remote-port value="37569"/>
    </traci_server>

</configuration>
-->

<tripinfos xmlns:xsi="http://www.w3.org/2001/XMLSchema-instance" xsi:noNamespaceSchemaLocation="http://sumo.dlr.de/xsd/tripinfo_file.xsd">
    <tripinfo id="NS_2" depart="2.00" departLane="2i_0" departPos="4.10" departSpeed="0.00" departDelay="0.00" arrival="80.00" arrivalLane="1o_0" arrivalPos="492.80" arrivalSpeed="11.41" duration="78.00" routeLength="995.90" waitingTime="0.00" waitingCount="0" stopTime="0.00" timeLoss="10.68" rerouteNo="0" devices="tripinfo_NS_2" vType="car" speedFactor="1.06" vaporized=""/>
    <tripinfo id="EW_4" depart="4.00" departLane="4i_0" departPos="4.10" departSpeed="0.00" departDelay="0.00" arrival="88.00" arrivalLane="3o_0" arrivalPos="492.80" arrivalSpeed="9.35" duration="84.00" routeLength="995.90" waitingTime="0.00" waitingCount="0" stopTime="0.00" timeLoss="8.39" rerouteNo="0" devices="tripinfo_EW_4" vType="car" speedFactor="0.94" vaporized=""/>
    <tripinfo id="WE_8" depart="8.00" departLane="1i_0" departPos="4.10" departSpeed="0.00" departDelay="0.00" arrival="91.00" arrivalLane="2o_0" arrivalPos="492.80" arrivalSpeed="11.19" duration="83.00" routeLength="995.90" waitingTime="3.00" waitingCount="1" stopTime="0.00" timeLoss="13.18" rerouteNo="0" devices="tripinfo_WE_8" vType="car" speedFactor="1.01" vaporized=""/>
    <tripinfo id="WE_9" depart="11.00" departLane="1i_0" departPos="4.10" departSpeed="0.00" departDelay="2.00" arrival="94.00" arrivalLane="2o_0" arrivalPos="492.80" arrivalSpeed="11.19" duration="83.00" routeLength="995.90" waitingTime="3.00" waitingCount="2" stopTime="0.00" timeLoss="17.65" rerouteNo="0" devices="tripinfo_WE_9" vType="car" speedFactor="1.08" vaporized=""/>
    <tripinfo id="WE_10" depart="13.00" departLane="1i_0" departPos="4.10" departSpeed="0.00" departDelay="3.00" arrival="100.00" arrivalLane="3o_0" arrivalPos="492.80" arrivalSpeed="10.39" duration="87.00" routeLength="990.53" waitingTime="0.00" waitingCount="0" stopTime="0.00" timeLoss="18.35" rerouteNo="0" devices="tripinfo_WE_10" vType="car" speedFactor="1.03" vaporized=""/>
    <tripinfo id="EW_23" depart="23.00" departLane="4i_0" departPos="4.10" departSpeed="0.00" departDelay="0.00" arrival="104.00" arrivalLane="3o_0" arrivalPos="492.80" arrivalSpeed="11.44" duration="81.00" routeLength="995.90" waitingTime="1.00" waitingCount="1" stopTime="0.00" timeLoss="12.77" rerouteNo="0" devices="tripinfo_EW_23" vType="car" speedFactor="1.05" vaporized=""/>
    <tripinfo id="WE_29" depart="29.00" departLane="1i_0" departPos="4.10" departSpeed="0.00" departDelay="0.00" arrival="106.00" arrivalLane="3o_0" arrivalPos="492.80" arrivalSpeed="11.31" duration="77.00" routeLength="990.53" waitingTime="0.00" waitingCount="0" stopTime="0.00" timeLoss="12.07" rerouteNo="0" devices="tripinfo_WE_29" vType="car" speedFactor="1.09" vaporized=""/>
    <tripinfo id="WE_30" depart="32.00" departLane="1i_0" departPos="4.10" departSpeed="0.00" departDelay="2.00" arrival="111.00" arrivalLane="3o_0" arrivalPos="492.80" arrivalSpeed="11.29" duration="79.00" routeLength="990.53" waitingTime="0.00" waitingCount="0" stopTime="0.00" timeLoss="9.62" rerouteNo="0" devices="tripinfo_WE_30" vType="car" speedFactor="1.03" vaporized=""/>
    <tripinfo id="NS_31" depart="31.00" departLane="2i_0" departPos="4.10" departSpeed="0.00" departDelay="0.00" arrival="112.00" arrivalLane="3o_0" arrivalPos="492.80" arrivalSpeed="11.47" duration="81.00" routeLength="995.70" waitingTime="0.00" waitingCount="0" stopTime="0.00" timeLoss="18.01" rerouteNo="0" devices="tripinfo_NS_31" vType="car" speedFactor="1.12" vaporized=""/>
    <tripinfo id="WE_13" depart="16.00" departLane="1i_0" departPos="4.10" departSpeed="0.00" departDelay="3.00" arrival="114.00" arrivalLane="2o_0" arrivalPos="492.80" arrivalSpeed="8.59" duration="98.00" routeLength="995.90" waitingTime="0.00" waitingCount="0" stopTime="0.00" timeLoss="12.27" rerouteNo="0" devices="tripinfo_WE_13" vType="car" speedFactor="0.83" vaporized=""/>
    <tripinfo id="WE_26" depart="26.00" departLane="1i_0" departPos="4.10" departSpeed="0.00" departDelay="0.00" arrival="115.00" arrivalLane="2o_0" arrivalPos="492.80" arrivalSpeed="9.85" duration="89.00" routeLength="995.90" waitingTime="0.00" waitingCount="0" stopTime="0.00" timeLoss="13.52" rerouteNo="0" devices="tripinfo_WE_26" vType="car" speedFactor="0.94" vaporized=""/>
    <tripinfo id="EW_31" depart="31.00" departLane="4i_0" departPos="4.10" departSpeed="0.00" departDelay="0.00" arrival="117.00" arrivalLane="2o_0" arrivalPos="492.80" arrivalSpeed="10.80" duration="86.00" routeLength="995.70" waitingTime="1.00" waitingCount="1" stopTime="0.00" timeLoss="18.39" rerouteNo="0" devices="tripinfo_EW_31" vType="car" speedFactor="1.05" vaporized=""/>
    <tripinfo id="NS_26" depart="26.00" departLane="2i_0" departPos="4.10" departSpeed="0.00" departDelay="0.00" arrival="118.00" arrivalLane="1o_0" arrivalPos="492.80" arrivalSpeed="8.71" duration="92.00" routeLength="995.90" waitingTime="0.00" waitingCount="0" stopTime="0.00" timeLoss="9.23" rerouteNo="0" devices="tripinfo_NS_26" vType="car" speedFactor="0.86" vaporized=""/>
    <tripinfo id="EW_24" depart="25.00" departLane="4i_0" departPos="4.10" departSpeed="0.00" departDelay="1.00" arrival="120.00" arrivalLane="1o_0" arrivalPos="492.80" arrivalSpeed="9.71" duration="95.00" routeLength="990.53" waitingTime="3.00" waitingCount="1" stopTime="0.00" timeLoss="14.92" rerouteNo="0" devices="tripinfo_EW_24" vType="car" speedFactor="0.89" vaporized=""/>
    <tripinfo id="WE_34" depart="35.00" departLane="1i_0" departPos="4.10" departSpeed="0.00" departDelay="1.00" arrival="122.00" arrivalLane="4o_0" arrivalPos="492.80" arrivalSpeed="10.05" duration="87.00" routeLength="995.70" waitingTime="1.00" waitingCount="1" stopTime="0.00" timeLoss="15.31" rerouteNo="0" devices="tripinfo_WE_34" vType="car" speedFactor="0.99" vaporized=""/>
    <tripinfo id="NS_35" depart="35.00" departLane="2i_0" departPos="4.10" departSpeed="0.00" departDelay="0.00" arrival="126.00" arrivalLane="3o_0" arrivalPos="492.80" arrivalSpeed="9.26" duration="91.00" routeLength="995.70" waitingTime="1.00" waitingCount="1" stopTime="0.00" timeLoss="14.02" rerouteNo="0" devices="tripinfo_NS_35" vType="car" speedFactor="0.93" vaporized=""/>
    <tripinfo id="NS_44" depart="45.00" departLane="2i_0" departPos="4.10" departSpeed="0.00" departDelay="1.00" arrival="129.00" arrivalLane="1o_0" arrivalPos="492.80" arrivalSpeed="12.47" duration="84.00" routeLength="995.90" waitingTime="1.00" waitingCount="1" stopTime="0.00" timeLoss="22.24" rerouteNo="0" devices="tripinfo_NS_44" vType="car" speedFactor="1.16" vaporized=""/>
    <tripinfo id="WE_39" depart="39.00" departLane="1i_0" departPos="4.10" departSpeed="0.00" departDelay="0.00" arrival="130.00" arrivalLane="2o_0" arrivalPos="492.80" arrivalSpeed="8.85" duration="91.00" routeLength="995.90" waitingTime="0.00" waitingCount="0" stopTime="0.00" timeLoss="10.44" rerouteNo="0" devices="tripinfo_WE_39" vType="car" speedFactor="0.88" vaporized=""/>
    <tripinfo id="EW_42" depart="42.00" departLane="4i_0" departPos="4.10" departSpeed="0.00" departDelay="0.00" arrival="130.00" arrivalLane="3o_0" arrivalPos="492.80" arrivalSpeed="9.89" duration="88.00" routeLength="995.90" waitingTime="0.00" waitingCount="0" stopTime="0.00" timeLoss="12.68" rerouteNo="0" devices="tripinfo_EW_42" vType="car" speedFactor="0.94" vaporized=""/>
    <tripinfo id="NS_41" depart="41.00" departLane="2i_0" departPos="10.10" departSpeed="0.00" departDelay="0.00" arrival="134.00" arrivalLane="4o_0" arrivalPos="492.80" arrivalSpeed="10.74" duration="93.00" routeLength="984.53" waitingTime="2.00" waitingCount="1" stopTime="0.00" timeLoss="20.21" rerouteNo="0" devices="tripinfo_NS_41" vType="truck" speedFactor="0.97" vaporized=""/>
    <tripinfo id="SN_47" depart="47.00" departLane="3i_0" departPos="10.10" departSpeed="0.00" departDelay="0.00" arrival="138.00" arrivalLane="1o_0" arrivalPos="492.80" arrivalSpeed="11.03" duration="91.00" routeLength="989.70" waitingTime="2.00" waitingCount="1" stopTime="0.00" timeLoss="21.13" rerouteNo="0" devices="tripinfo_SN_47" vType="truck" speedFactor="1.01" vaporized=""/>
    <tripinfo id="SN_50" depart="51.00" departLane="3i_0" departPos="4.10" departSpeed="0.00" departDelay="1.00" arrival="142.00" arrivalLane="2o_0" arrivalPos="492.80" arrivalSpeed="10.60" duration="91.00" routeLength="990.53" waitingTime="0.00" waitingCount="0" stopTime="0.00" timeLoss="18.54" rerouteNo="0" devices="tripinfo_SN_50" vType="car" speedFactor="0.97" vaporized=""/>
    <tripinfo id="NS_47" depart="48.00" departLane="2i_0" departPos="4.10" departSpeed="0.00" departDelay="1.00" arrival="148.00" arrivalLane="3o_0" arrivalPos="492.80" arrivalSpeed="10.10" duration="100.00" routeLength="995.70" waitingTime="7.00" waitingCount="1" stopTime="0.00" timeLoss="30.30" rerouteNo="0" devices="tripinfo_NS_47" vType="car" speedFactor="1.02" vaporized=""/>
    <tripinfo id="EW_63" depart="63.00" departLane="4i_0" departPos="4.10" departSpeed="0.00" departDelay="0.00" arrival="152.00" arrivalLane="1o_0" arrivalPos="492.80" arrivalSpeed="9.77" duration="89.00" routeLength="990.53" waitingTime="0.00" waitingCount="0" stopTime="0.00" timeLoss="12.41" rerouteNo="0" devices="tripinfo_EW_63" vType="car" speedFactor="0.92" vaporized=""/>
    <tripinfo id="WE_64" depart="64.00" departLane="1i_0" departPos="4.10" departSpeed="0.00" departDelay="0.00" arrival="153.00" arrivalLane="4o_0" arrivalPos="492.80" arrivalSpeed="9.47" duration="89.00" routeLength="995.70" waitingTime="0.00" waitingCount="0" stopTime="0.00" timeLoss="13.74" rerouteNo="0" devices="tripinfo_WE_64" vType="car" speedFactor="0.95" vaporized=""/>
    <tripinfo id="WE_52" depart="52.00" departLane="1i_0" departPos="4.10" departSpeed="0.00" departDelay="0.00" arrival="154.00" arrivalLane="2o_0" arrivalPos="492.80" arrivalSpeed="8.25" duration="102.00" routeLength="995.90" waitingTime="4.00" waitingCount="2" stopTime="0.00" timeLoss="16.48" rerouteNo="0" devices="tripinfo_WE_52" vType="car" speedFactor="0.83" vaporized=""/>
    <tripinfo id="NS_65" depart="65.00" departLane="2i_0" departPos="4.10" departSpeed="0.00" departDelay="0.00" arrival="154.00" arrivalLane="4o_0" arrivalPos="492.80" arrivalSpeed="12.10" duration="89.00" routeLength="990.53" waitingTime="5.00" waitingCount="2" stopTime="0.00" timeLoss="26.61" rerouteNo="0" devices="tripinfo_NS_65" vType="car" speedFactor="1.13" vaporized=""/>
    <tripinfo id="EW_71" depart="71.00" departLane="4i_0" departPos="4.10" departSpeed="0.00" departDelay="0.00" arrival="154.00" arrivalLane="1o_0" arrivalPos="492.80" arrivalSpeed="12.86" duration="83.00" routeLength="990.53" waitingTime="0.00" waitingCount="0" stopTime="0.00" timeLoss="22.84" rerouteNo="0" devices="tripinfo_EW_71" vType="car" speedFactor="1.18" vaporized=""/>
    <tripinfo id="WE_69" depart="69.00" departLane="1i_0" departPos="4.10" departSpeed="0.00" departDelay="0.00" arrival="158.00" arrivalLane="3o_0" arrivalPos="492.80" arrivalSpeed="10.32" duration="89.00" routeLength="990.53" waitingTime="0.00" waitingCount="0" stopTime="0.00" timeLoss="12.73" rerouteNo="0" devices="tripinfo_WE_69" vType="car" speedFactor="0.93" vaporized=""/>
    <tripinfo id="NS_51" depart="51.00" departLane="2i_0" departPos="4.10" departSpeed="0.00" departDelay="0.00" arrival="161.00" arrivalLane="1o_0" arrivalPos="492.80" arrivalSpeed="9.71" duration="110.00" routeLength="995.90" waitingTime="8.00" waitingCount="2" stopTime="0.00" timeLoss="30.51" rerouteNo="0" devices="tripinfo_NS_51" vType="car" speedFactor="0.89" vaporized=""/>
    <tripinfo id="NS_61" depart="61.00" departLane="2i_0" departPos="4.10" departSpeed="0.00" departDelay="0.00" arrival="164.00" arrivalLane="3o_0" arrivalPos="492.80" arrivalSpeed="9.29" duration="103.00" routeLength="995.70" waitingTime="7.00" waitingCount="2" stopTime="0.00" timeLoss="21.84" rerouteNo="0" devices="tripinfo_NS_61" vType="car" speedFactor="0.87" vaporized=""/>
    <tripinfo id="WE_79" depart="80.00" departLane="1i_0" departPos="10.10" departSpeed="0.00" departDelay="1.00" arrival="167.00" arrivalLane="3o_0" arrivalPos="492.80" arrivalSpeed="11.94" duration="87.00" routeLength="984.53" waitingTime="0.00" waitingCount="0" stopTime="0.00" timeLoss="20.13" rerouteNo="0" devices="tripinfo_WE_79" vType="truck" speedFactor="1.08" vaporized=""/>
    <tripinfo id="WE_86" depart="87.00" departLane="1i_0" departPos="4.10" departSpeed="0.00" departDelay="1.00" arrival="170.00" arrivalLane="3o_0" arrivalPos="492.80" arrivalSpeed="12.86" duration="83.00" routeLength="990.53" waitingTime="1.00" waitingCount="1" stopTime="0.00" timeLoss="22.16" rerouteNo="0" devices="tripinfo_WE_86" vType="car" speedFactor="1.17" vaporized=""/>
    <tripinfo id="WE_81" depart="84.00" departLane="1i_0" departPos="4.10" departSpeed="0.00" departDelay="3.00" arrival="172.00" arrivalLane="2o_0" arrivalPos="492.80" arrivalSpeed="10.90" duration="88.00" routeLength="995.90" waitingTime="0.00" waitingCount="0" stopTime="0.00" timeLoss="17.54" rerouteNo="0" devices="tripinfo_WE_81" vType="car" speedFactor="1.01" vaporized=""/>
    <tripinfo id="WE_88" depart="90.00" departLane="1i_0" departPos="4.10" departSpeed="0.00" departDelay="2.00" arrival="181.00" arrivalLane="3o_0" arrivalPos="492.80" arrivalSpeed="10.99" duration="91.00" routeLength="990.53" waitingTime="0.00" waitingCount="0" stopTime="0.00" timeLoss="20.03" rerouteNo="0" devices="tripinfo_WE_88" vType="car" speedFactor="0.99" vaporized=""/>
    <tripinfo id="SN_98" depart="100.00" departLane="3i_0" departPos="4.10" departSpeed="0.00" departDelay="2.00" arrival="181.00" arrivalLane="2o_0" arrivalPos="492.80" arrivalSpeed="10.84" duration="81.00" routeLength="990.53" waitingTime="1.00" waitingCount="1" stopTime="0.00" timeLoss="11.20" rerouteNo="0" devices="tripinfo_SN_98" vType="car" speedFactor="1.02" vaporized=""/>
    <tripinfo id="EW_112" depart="112.00" departLane="4i_0" departPos="4.10" departSpeed="0.00" departDelay="0.00" arrival="185.00" arrivalLane="3o_0" arrivalPos="492.80" arrivalSpeed="11.89" duration="73.00" routeLength="995.90" waitingTime="0.00" waitingCount="0" stopTime="0.00" timeLoss="8.19" rerouteNo="0" devices="tripinfo_EW_112" vType="car" speedFactor="1.10" vaporized=""/>
    <tripinfo id="WE_112" depart="112.00" departLane="1i_0" departPos="4.10" departSpeed="0.00" departDelay="0.00" arrival="191.00" arrivalLane="4o_0" arrivalPos="492.80" arrivalSpeed="12.48" duration="79.00" routeLength="995.70" waitingTime="4.00" waitingCount="2" stopTime="0.00" timeLoss="18.73" rerouteNo="0" devices="tripinfo_WE_112" vType="car" speedFactor="1.18" vaporized=""/>
    <tripinfo id="SN_102" depart="106.00" departLane="3i_0" departPos="4.10" departSpeed="0.00" departDelay="4.00" arrival="196.00" arrivalLane="1o_0" arrivalPos="492.80" arrivalSpeed="9.99" duration="90.00" routeLength="995.70" waitingTime="3.00" waitingCount="1" stopTime="0.00" timeLoss="16.96" rerouteNo="0" devices="tripinfo_SN_102" vType="car" speedFactor="0.97" vaporized=""/>
    <tripinfo id="EW_122" depart="122.00" departLane="4i_0" departPos="4.10" departSpeed="0.00" departDelay="0.00" arrival="202.00" arrivalLane="1o_0" arrivalPos="492.80" arrivalSpeed="11.35" duration="80.00" routeLength="990.53" waitingTime="1.00" waitingCount="1" stopTime="0.00" timeLoss="11.10" rerouteNo="0" devices="tripinfo_EW_122" vType="car" speedFactor="1.03" vaporized=""/>
    <tripinfo id="WE_114" depart="114.00" departLane="1i_0" departPos="4.10" departSpeed="0.00" departDelay="0.00" arrival="206.00" arrivalLane="3o_0" arrivalPos="492.80" arrivalSpeed="8.91" duration="92.00" routeLength="990.53" waitingTime="0.00" waitingCount="0" stopTime="0.00" timeLoss="13.57" rerouteNo="0" devices="tripinfo_WE_114" vType="car" speedFactor="0.90" vaporized=""/>
    <tripinfo id="SN_125" depart="126.00" departLane="3i_0" departPos="4.10" departSpeed="0.00" departDelay="1.00" arrival="206.00" arrivalLane="1o_0" arrivalPos="492.80" arrivalSpeed="11.52" duration="80.00" routeLength="995.70" waitingTime="3.00" waitingCount="1" stopTime="0.00" timeLoss="14.65" rerouteNo="0" devices="tripinfo_SN_125" vType="car" speedFactor="1.09" vaporized=""/>
    <tripinfo id="WE_124" depart="124.00" departLane="1i_0" departPos="4.10" departSpeed="0.00" departDelay="0.00" arrival="207.00" arrivalLane="2o_0" arrivalPos="492.80" arrivalSpeed="10.48" duration="83.00" routeLength="995.90" waitingTime="0.00" waitingCount="0" stopTime="0.00" timeLoss="8.53" rerouteNo="0" devices="tripinfo_WE_124" vType="car" speedFactor="0.96" vaporized=""/>
    <tripinfo id="SN_130" depart="130.00" departLane="3i_0" departPos="4.10" departSpeed="0.00" departDelay="0.00" arrival="208.00" arrivalLane="2o_0" arrivalPos="492.80" arrivalSpeed="10.73" duration="78.00" routeLength="990.53" waitingTime="0.00" waitingCount="0" stopTime="0.00" timeLoss="10.27" rerouteNo="0" devices="tripinfo_SN_130" vType="car" speedFactor="1.04" vaporized=""/>
    <tripinfo id="NS_132" depart="132.00" departLane="2i_0" departPos="4.10" departSpeed="0.00" departDelay="0.00" arrival="209.00" arrivalLane="4o_0" arrivalPos="492.80" arrivalSpeed="10.72" duration="77.00" routeLength="990.53" waitingTime="0.00" waitingCount="0" stopTime="0.00" timeLoss="9.30" rerouteNo="0" devices="tripinfo_NS_132" vType="car" speedFactor="1.04" vaporized=""/>
    <tripinfo id="SN_136" depart="136.00" departLane="3i_0" departPos="4.10" departSpeed="0.00" departDelay="0.00" arrival="212.00" arrivalLane="1o_0" arrivalPos="492.80" arrivalSpeed="12.09" duration="76.00" routeLength="995.70" waitingTime="0.00" waitingCount="0" stopTime="0.00" timeLoss="10.46" rerouteNo="0" devices="tripinfo_SN_136" vType="car" speedFactor="1.09" vaporized=""/>
    <tripinfo id="SN_137" depart="139.00" departLane="3i_0" departPos="4.10" departSpeed="0.00" departDelay="2.00" arrival="222.00" arrivalLane="4o_0" arrivalPos="492.80" arrivalSpeed="11.08" duration="83.00" routeLength="995.90" waitingTime="1.00" waitingCount="1" stopTime="0.00" timeLoss="11.98" rerouteNo="0" devices="tripinfo_SN_137" vType="car" speedFactor="1.00" vaporized=""/>
    <tripinfo id="SN_142" depart="142.00" departLane="3i_0" departPos="4.10" departSpeed="0.00" departDelay="0.00" arrival="235.00" arrivalLane="1o_0" arrivalPos="492.80" arrivalSpeed="9.07" duration="93.00" routeLength="995.70" waitingTime="1.00" waitingCount="1" stopTime="0.00" timeLoss="13.79" rerouteNo="0" devices="tripinfo_SN_142" vType="car" speedFactor="0.90" vaporized=""/>
    <tripinfo id="NS_163" depart="163.00" departLane="2i_0" departPos="4.10" departSpeed="0.00" departDelay="0.00" arrival="243.00" arrivalLane="3o_0" arrivalPos="492.80" arrivalSpeed="11.91" duration="80.00" routeLength="995.70" waitingTime="2.00" waitingCount="2" stopTime="0.00" timeLoss="19.47" rerouteNo="0" devices="tripinfo_NS_163" vType="car" speedFactor="1.17" vaporized=""/>
    <tripinfo id="WE_148" depart="148.00" departLane="1i_0" departPos="10.10" departSpeed="0.00" departDelay="0.00" arrival="244.00" arrivalLane="4o_0" arrivalPos="492.80" arrivalSpeed="9.90" duration="96.00" routeLength="989.70" waitingTime="0.00" waitingCount="0" stopTime="0.00" timeLoss="19.28" rerouteNo="0" devices="tripinfo_WE_148" vType="truck" speedFactor="0.93" vaporized=""/>
    <tripinfo id="SN_147" depart="148.00" departLane="3i_0" departPos="4.10" departSpeed="0.00" departDelay="1.00" arrival="251.00" arrivalLane="4o_0" arrivalPos="492.80" arrivalSpeed="9.13" duration="103.00" routeLength="995.90" waitingTime="10.00" waitingCount="1" stopTime="0.00" timeLoss="21.91" rerouteNo="0" devices="tripinfo_SN_147" vType="car" speedFactor="0.88" vaporized=""/>
    <tripinfo id="EW_164" depart="164.00" departLane="4i_0" departPos="4.10" departSpeed="0.00" departDelay="0.00" arrival="251.00" arrivalLane="3o_0" arrivalPos="492.80" arrivalSpeed="10.79" duration="87.00" routeLength="995.90" waitingTime="3.00" waitingCount="2" stopTime="0.00" timeLoss="17.47" rerouteNo="0" devices="tripinfo_EW_164" vType="car" speedFactor="1.02" vaporized=""/>
    <tripinfo id="WE_168" depart="168.00" departLane="1i_0" departPos="4.10" departSpeed="0.00" departDelay="0.00" arrival="256.00" arrivalLane="2o_0" arrivalPos="492.80" arrivalSpeed="10.85" duration="88.00" routeLength="995.90" waitingTime="0.00" waitingCount="0" stopTime="0.00" timeLoss="17.30" rerouteNo="0" devices="tripinfo_WE_168" vType="car" speedFactor="1.00" vaporized=""/>
    <tripinfo id="WE_149" depart="152.00" departLane="1i_0" departPos="4.10" departSpeed="0.00" departDelay="3.00" arrival="259.00" arrivalLane="4o_0" arrivalPos="492.80" arrivalSpeed="8.25" duration="107.00" routeLength="995.70" waitingTime="2.00" waitingCount="1" stopTime="0.00" timeLoss="23.66" rerouteNo="0" devices="tripinfo_WE_149" vType="car" speedFactor="0.85" vaporized=""/>
    <tripinfo id="SN_165" depart="167.00" departLane="3i_0" departPos="4.10" departSpeed="0.00" departDelay="2.00" arrival="260.00" arrivalLane="4o_0" arrivalPos="492.80" arrivalSpeed="11.05" duration="93.00" routeLength="995.90" waitingTime="1.00" waitingCount="1" stopTime="0.00" timeLoss="28.41" rerouteNo="0" devices="tripinfo_SN_165" vType="car" speedFactor="1.10" vaporized=""/>
    <tripinfo id="SN_170" depart="170.00" departLane="3i_0" departPos="4.10" departSpeed="0.00" departDelay="0.00" arrival="262.00" arrivalLane="4o_0" arrivalPos="492.80" arrivalSpeed="10.83" duration="92.00" routeLength="995.90" waitingTime="4.00" waitingCount="1" stopTime="0.00" timeLoss="21.23" rerouteNo="0" devices="tripinfo_SN_170" vType="car" speedFactor="1.00" vaporized=""/>
    <tripinfo id="EW_171" depart="171.00" departLane="4i_0" departPos="4.10" departSpeed="0.00" departDelay="0.00" arrival="268.00" arrivalLane="3o_0" arrivalPos="492.80" arrivalSpeed="9.95" duration="97.00" routeLength="995.90" waitingTime="4.00" waitingCount="1" stopTime="0.00" timeLoss="18.22" rerouteNo="0" devices="tripinfo_EW_171" vType="car" speedFactor="0.90" vaporized=""/>
    <tripinfo id="SN_179" depart="179.00" departLane="3i_0" departPos="4.10" departSpeed="0.00" departDelay="0.00" arrival="269.00" arrivalLane="1o_0" arrivalPos="492.80" arrivalSpeed="11.31" duration="90.00" routeLength="995.70" waitingTime="1.00" waitingCount="1" stopTime="0.00" timeLoss="20.33" rerouteNo="0" devices="tripinfo_SN_179" vType="car" speedFactor="1.02" vaporized=""/>
    <tripinfo id="EW_187" depart="187.00" departLane="4i_0" departPos="4.10" departSpeed="0.00" departDelay="0.00" arrival="270.00" arrivalLane="3o_0" arrivalPos="492.80" arrivalSpeed="11.73" duration="83.00" routeLength="995.90" waitingTime="0.00" waitingCount="0" stopTime="0.00" timeLoss="17.05" rerouteNo="0" devices="tripinfo_EW_187" vType="car" speedFactor="1.08" vaporized=""/>
    <tripinfo id="NS_178" depart="178.00" departLane="2i_0" departPos="10.10" departSpeed="0.00" departDelay="0.00" arrival="272.00" arrivalLane="3o_0" arrivalPos="492.80" arrivalSpeed="11.52" duration="94.00" routeLength="989.70" waitingTime="1.00" waitingCount="1" stopTime="0.00" timeLoss="27.35" rerouteNo="0" devices="tripinfo_NS_178" vType="truck" speedFactor="1.07" vaporized=""/>
    <tripinfo id="SN_180" depart="182.00" departLane="3i_0" departPos="4.10" departSpeed="0.00" departDelay="2.00" arrival="276.00" arrivalLane="4o_0" arrivalPos="492.80" arrivalSpeed="10.68" duration="94.00" routeLength="995.90" waitingTime="1.00" waitingCount="1" stopTime="0.00" timeLoss="20.72" rerouteNo="0" devices="tripinfo_SN_180" vType="car" speedFactor="0.97" vaporized=""/>
    <tripinfo id="SN_187" depart="187.00" departLane="3i_0" departPos="4.10" departSpeed="0.00" departDelay="0.00" arrival="278.00" arrivalLane="4o_0" arrivalPos="492.80" arrivalSpeed="11.14" duration="91.00" routeLength="995.90" waitingTime="0.00" waitingCount="0" stopTime="0.00" timeLoss="27.25" rerouteNo="0" devices="tripinfo_SN_187" vType="car" speedFactor="1.12" vaporized=""/>
    <tripinfo id="SN_194" depart="194.00" departLane="3i_0" departPos="4.10" departSpeed="0.00" departDelay="0.00" arrival="279.00" arrivalLane="2o_0" arrivalPos="492.80" arrivalSpeed="10.21" duration="85.00" routeLength="990.53" waitingTime="0.00" waitingCount="0" stopTime="0.00" timeLoss="15.06" rerouteNo="0" devices="tripinfo_SN_194" vType="car" speedFactor="1.02" vaporized=""/>
    <tripinfo id="EW_202" depart="202.00" departLane="4i_0" departPos="10.10" departSpeed="0.00" departDelay="0.00" arrival="286.00" arrivalLane="3o_0" arrivalPos="492.80" arrivalSpeed="10.88" duration="84.00" routeLength="989.90" waitingTime="0.00" waitingCount="0" stopTime="0.00" timeLoss="12.73" rerouteNo="0" devices="tripinfo_EW_202" vType="truck" speedFactor="0.99" vaporized=""/>
    <tripinfo id="SN_204" depart="204.00" departLane="3i_0" departPos="4.10" departSpeed="0.00" departDelay="0.00" arrival="288.00" arrivalLane="2o_0" arrivalPos="492.80" arrivalSpeed="9.58" duration="84.00" routeLength="990.53" waitingTime="0.00" waitingCount="0" stopTime="0.00" timeLoss="9.12" rerouteNo="0" devices="tripinfo_SN_204" vType="car" speedFactor="0.94" vaporized=""/>
    <tripinfo id="EW_216" depart="216.00" departLane="4i_0" departPos="4.10" departSpeed="0.00" departDelay="0.00" arrival="296.00" arrivalLane="2o_0" arrivalPos="492.80" arrivalSpeed="10.30" duration="80.00" routeLength="995.70" waitingTime="0.00" waitingCount="0" stopTime="0.00" timeLoss="10.87" rerouteNo="0" devices="tripinfo_EW_216" vType="car" speedFactor="1.02" vaporized=""/>
    <tripinfo id="WE_213" depart="218.00" departLane="1i_0" departPos="4.10" departSpeed="0.00" departDelay="5.00" arrival="299.00" arrivalLane="3o_0" arrivalPos="492.80" arrivalSpeed="10.43" duration="81.00" routeLength="990.53" waitingTime="0.00" waitingCount="0" stopTime="0.00" timeLoss="12.50" rerouteNo="0" devices="tripinfo_WE_213" vType="car" speedFactor="1.04" vaporized=""/>
    <tripinfo id="NS_210" depart="210.00" departLane="2i_0" departPos="4.10" departSpeed="0.00" departDelay="0.00" arrival="300.00" arrivalLane="1o_0" arrivalPos="492.80" arrivalSpeed="8.89" duration="90.00" routeLength="995.90" waitingTime="0.00" waitingCount="0" stopTime="0.00" timeLoss="9.11" rerouteNo="0" devices="tripinfo_NS_210" vType="car" speedFactor="0.88" vaporized=""/>
    <tripinfo id="WE_211" depart="212.00" departLane="1i_0" departPos="4.10" departSpeed="0.00" departDelay="1.00" arrival="301.00" arrivalLane="4o_0" arrivalPos="492.80" arrivalSpeed="8.96" duration="89.00" routeLength="995.70" waitingTime="0.00" waitingCount="0" stopTime="0.00" timeLoss="10.36" rerouteNo="0" devices="tripinfo_WE_211" vType="car" speedFactor="0.91" vaporized=""/>
    <tripinfo id="SN_221" depart="221.00" departLane="3i_0" departPos="4.10" departSpeed="0.00" departDelay="0.00" arrival="301.00" arrivalLane="2o_0" arrivalPos="492.80" arrivalSpeed="10.79" duration="80.00" routeLength="990.53" waitingTime="0.00" waitingCount="0" stopTime="0.00" timeLoss="11.07" rerouteNo="0" devices="tripinfo_SN_221" vType="car" speedFactor="1.02" vaporized=""/>
    <tripinfo id="WE_212" depart="215.00" departLane="1i_0" departPos="4.10" departSpeed="0.00" departDelay="3.00" arrival="305.00" arrivalLane="4o_0" arrivalPos="492.80" arrivalSpeed="8.99" duration="90.00" routeLength="995.70" waitingTime="0.00" waitingCount="0" stopTime="0.00" timeLoss="12.05" rerouteNo="0" devices="tripinfo_WE_212" vType="car" speedFactor="0.91" vaporized=""/>
    <tripinfo id="EW_223" depart="223.00" departLane="4i_0" departPos="4.10" departSpeed="0.00" departDelay="0.00" arrival="309.00" arrivalLane="1o_0" arrivalPos="492.80" arrivalSpeed="9.73" duration="86.00" routeLength="990.53" waitingTime="3.00" waitingCount="1" stopTime="0.00" timeLoss="12.85" rerouteNo="0" devices="tripinfo_EW_223" vType="car" speedFactor="0.97" vaporized=""/>
    <tripinfo id="EW_227" depart="227.00" departLane="4i_0" departPos="4.10" departSpeed="0.00" departDelay="0.00" arrival="313.00" arrivalLane="3o_0" arrivalPos="492.80" arrivalSpeed="11.15" duration="86.00" routeLength="995.90" waitingTime="3.00" waitingCount="2" stopTime="0.00" timeLoss="18.72" rerouteNo="0" devices="tripinfo_EW_227" vType="car" speedFactor="1.06" vaporized=""/>
    <tripinfo id="WE_226" depart="226.00" departLane="1i_0" departPos="4.10" departSpeed="0.00" departDelay="0.00" arrival="316.00" arrivalLane="4o_0" arrivalPos="492.80" arrivalSpeed="9.78" duration="90.00" routeLength="995.70" waitingTime="1.00" waitingCount="1" stopTime="0.00" timeLoss="14.05" rerouteNo="0" devices="tripinfo_WE_226" vType="car" speedFactor="0.94" vaporized=""/>
    <tripinfo id="EW_239" depart="239.00" departLane="4i_0" departPos="4.10" departSpeed="0.00" departDelay="0.00" arrival="317.00" arrivalLane="1o_0" arrivalPos="492.80" arrivalSpeed="11.12" duration="78.00" routeLength="990.53" waitingTime="0.00" waitingCount="0" stopTime="0.00" timeLoss="9.43" rerouteNo="0" devices="tripinfo_EW_239" vType="car" speedFactor="1.03" vaporized=""/>
    <tripinfo id="EW_234" depart="234.00" departLane="4i_0" departPos="4.10" departSpeed="0.00" departDelay="0.00" arrival="318.00" arrivalLane="2o_0" arrivalPos="492.80" arrivalSpeed="9.68" duration="84.00" routeLength="995.70" waitingTime="0.00" waitingCount="0" stopTime="0.00" timeLoss="12.08" rerouteNo="0" devices="tripinfo_EW_234" vType="car" speedFactor="0.98" vaporized=""/>