<?xml version="1.0" encoding="UTF-8"?>

<!-- generated on 2024-05-05 15:53:16 by Eclipse SUMO sumo Version 1.19.0
<configuration xmlns:xsi="http://www.w3.org/2001/XMLSchema-instance" xsi:noNamespaceSchemaLocation="http://sumo.dlr.de/xsd/sumoConfiguration.xsd">

    <input>
        <net-file value="twoone.net.xml"/>
        <route-files value="route_gen.rou.xml"/>
    </input>

    <output>
        <tripinfo-output value="tripinfo_epi51.xml"/>
    </output>

    <report>
        <no-warnings value="true"/>
    </report>

    <traci_server>
        <remote-port value="36981"/>
    </traci_server>

</configuration>
-->

<tripinfos xmlns:xsi="http://www.w3.org/2001/XMLSchema-instance" xsi:noNamespaceSchemaLocation="http://sumo.dlr.de/xsd/tripinfo_file.xsd">
    <tripinfo id="NS_0" depart="0.00" departLane="2i_0" departPos="4.10" departSpeed="0.00" departDelay="0.00" arrival="79.00" arrivalLane="1o_0" arrivalPos="492.80" arrivalSpeed="10.90" duration="79.00" routeLength="995.90" waitingTime="2.00" waitingCount="1" stopTime="0.00" timeLoss="12.03" rerouteNo="0" devices="tripinfo_NS_0" vType="car" speedFactor="1.06" vaporized=""/>
    <tripinfo id="SN_5" depart="5.00" departLane="3i_0" departPos="4.10" departSpeed="0.00" departDelay="0.00" arrival="82.00" arrivalLane="2o_0" arrivalPos="492.80" arrivalSpeed="10.98" duration="77.00" routeLength="990.53" waitingTime="0.00" waitingCount="0" stopTime="0.00" timeLoss="11.29" rerouteNo="0" devices="tripinfo_SN_5" vType="car" speedFactor="1.08" vaporized=""/>
    <tripinfo id="SN_0" depart="0.00" departLane="3i_0" departPos="4.10" departSpeed="0.00" departDelay="0.00" arrival="88.00" arrivalLane="1o_0" arrivalPos="492.80" arrivalSpeed="9.97" duration="88.00" routeLength="995.70" waitingTime="0.00" waitingCount="0" stopTime="0.00" timeLoss="12.20" rerouteNo="0" devices="tripinfo_SN_0" vType="car" speedFactor="0.94" vaporized=""/>
    <tripinfo id="EW_2" depart="2.00" departLane="4i_0" departPos="4.10" departSpeed="0.00" departDelay="0.00" arrival="90.00" arrivalLane="1o_0" arrivalPos="492.80" arrivalSpeed="10.68" duration="88.00" routeLength="990.53" waitingTime="3.00" waitingCount="2" stopTime="0.00" timeLoss="17.79" rerouteNo="0" devices="tripinfo_EW_2" vType="car" speedFactor="1.01" vaporized=""/>
    <tripinfo id="SN_9" depart="9.00" departLane="3i_0" departPos="4.10" departSpeed="0.00" departDelay="0.00" arrival="91.00" arrivalLane="1o_0" arrivalPos="492.80" arrivalSpeed="10.38" duration="82.00" routeLength="995.70" waitingTime="0.00" waitingCount="0" stopTime="0.00" timeLoss="13.44" rerouteNo="0" devices="tripinfo_SN_9" vType="car" speedFactor="1.03" vaporized=""/>
    <tripinfo id="SN_15" depart="15.00" departLane="3i_0" departPos="4.10" departSpeed="0.00" departDelay="0.00" arrival="91.00" arrivalLane="4o_0" arrivalPos="492.80" arrivalSpeed="11.16" duration="76.00" routeLength="995.90" waitingTime="0.00" waitingCount="0" stopTime="0.00" timeLoss="7.76" rerouteNo="0" devices="tripinfo_SN_15" vType="car" speedFactor="1.05" vaporized=""/>
    <tripinfo id="NS_29" depart="29.00" departLane="2i_0" departPos="4.10" departSpeed="0.00" departDelay="0.00" arrival="106.00" arrivalLane="4o_0" arrivalPos="492.80" arrivalSpeed="11.93" duration="77.00" routeLength="990.53" waitingTime="0.00" waitingCount="0" stopTime="0.00" timeLoss="11.63" rerouteNo="0" devices="tripinfo_NS_29" vType="car" speedFactor="1.09" vaporized=""/>
    <tripinfo id="NS_14" depart="14.00" departLane="2i_0" departPos="10.10" departSpeed="0.00" departDelay="0.00" arrival="109.00" arrivalLane="1o_0" arrivalPos="492.80" arrivalSpeed="9.68" duration="95.00" routeLength="989.90" waitingTime="1.00" waitingCount="1" stopTime="0.00" timeLoss="17.80" rerouteNo="0" devices="tripinfo_NS_14" vType="truck" speedFactor="0.92" vaporized=""/>
    <tripinfo id="WE_26" depart="26.00" departLane="1i_0" departPos="4.10" departSpeed="0.00" departDelay="0.00" arrival="109.00" arrivalLane="2o_0" arrivalPos="492.80" arrivalSpeed="10.02" duration="83.00" routeLength="995.90" waitingTime="0.00" waitingCount="0" stopTime="0.00" timeLoss="7.05" rerouteNo="0" devices="tripinfo_WE_26" vType="car" speedFactor="0.94" vaporized=""/>
    <tripinfo id="EW_30" depart="30.00" departLane="4i_0" departPos="4.10" departSpeed="0.00" departDelay="0.00" arrival="109.00" arrivalLane="3o_0" arrivalPos="492.80" arrivalSpeed="10.96" duration="79.00" routeLength="995.90" waitingTime="0.00" waitingCount="0" stopTime="0.00" timeLoss="9.75" rerouteNo="0" devices="tripinfo_EW_30" vType="car" speedFactor="1.03" vaporized=""/>
    <tripinfo id="NS_24" depart="24.00" departLane="2i_0" departPos="4.10" departSpeed="0.00" departDelay="0.00" arrival="114.00" arrivalLane="1o_0" arrivalPos="492.80" arrivalSpeed="9.75" duration="90.00" routeLength="995.90" waitingTime="0.00" waitingCount="0" stopTime="0.00" timeLoss="10.21" rerouteNo="0" devices="tripinfo_NS_24" vType="car" speedFactor="0.89" vaporized=""/>
    <tripinfo id="NS_36" depart="37.00" departLane="2i_0" departPos="4.10" departSpeed="0.00" departDelay="1.00" arrival="115.00" arrivalLane="4o_0" arrivalPos="492.80" arrivalSpeed="12.25" duration="78.00" routeLength="990.53" waitingTime="0.00" waitingCount="0" stopTime="0.00" timeLoss="14.86" rerouteNo="0" devices="tripinfo_NS_36" vType="car" speedFactor="1.12" vaporized=""/>
    <tripinfo id="NS_31" depart="33.00" departLane="2i_0" departPos="10.10" departSpeed="0.00" departDelay="2.00" arrival="117.00" arrivalLane="1o_0" arrivalPos="492.80" arrivalSpeed="11.07" duration="84.00" routeLength="989.90" waitingTime="0.00" waitingCount="0" stopTime="0.00" timeLoss="14.59" rerouteNo="0" devices="tripinfo_NS_31" vType="truck" speedFactor="1.02" vaporized=""/>
    <tripinfo id="SN_27" depart="27.00" departLane="3i_0" departPos="10.10" departSpeed="0.00" departDelay="0.00" arrival="123.00" arrivalLane="1o_0" arrivalPos="492.80" arrivalSpeed="9.83" duration="96.00" routeLength="989.70" waitingTime="1.00" waitingCount="1" stopTime="0.00" timeLoss="20.32" rerouteNo="0" devices="tripinfo_SN_27" vType="truck" speedFactor="0.93" vaporized=""/>
    <tripinfo id="WE_38" depart="38.00" departLane="1i_0" departPos="4.10" departSpeed="0.00" departDelay="0.00" arrival="127.00" arrivalLane="4o_0" arrivalPos="492.80" arrivalSpeed="10.81" duration="89.00" routeLength="995.70" waitingTime="2.00" waitingCount="2" stopTime="0.00" timeLoss="17.67" rerouteNo="0" devices="tripinfo_WE_38" vType="car" speedFactor="0.99" vaporized=""/>
    <tripinfo id="NS_43" depart="43.00" departLane="2i_0" departPos="4.10" departSpeed="0.00" departDelay="0.00" arrival="134.00" arrivalLane="1o_0" arrivalPos="492.80" arrivalSpeed="10.21" duration="91.00" routeLength="995.90" waitingTime="1.00" waitingCount="1" stopTime="0.00" timeLoss="14.10" rerouteNo="0" devices="tripinfo_NS_43" vType="car" speedFactor="0.93" vaporized=""/>
    <tripinfo id="SN_51" depart="51.00" departLane="3i_0" departPos="4.10" departSpeed="0.00" departDelay="0.00" arrival="135.00" arrivalLane="4o_0" arrivalPos="492.80" arrivalSpeed="10.24" duration="84.00" routeLength="995.90" waitingTime="0.00" waitingCount="0" stopTime="0.00" timeLoss="8.80" rerouteNo="0" devices="tripinfo_SN_51" vType="car" speedFactor="0.94" vaporized=""/>
    <tripinfo id="EW_57" depart="57.00" departLane="4i_0" departPos="4.10" departSpeed="0.00" departDelay="0.00" arrival="135.00" arrivalLane="1o_0" arrivalPos="492.80" arrivalSpeed="10.93" duration="78.00" routeLength="990.53" waitingTime="0.00" waitingCount="0" stopTime="0.00" timeLoss="8.75" rerouteNo="0" devices="tripinfo_EW_57" vType="car" speedFactor="1.02" vaporized=""/>
    <tripinfo id="SN_53" depart="54.00" departLane="3i_0" departPos="4.10" departSpeed="0.00" departDelay="1.00" arrival="137.00" arrivalLane="1o_0" arrivalPos="492.80" arrivalSpeed="12.79" duration="83.00" routeLength="995.70" waitingTime="4.00" waitingCount="2" stopTime="0.00" timeLoss="21.73" rerouteNo="0" devices="tripinfo_SN_53" vType="car" speedFactor="1.16" vaporized=""/>
    <tripinfo id="EW_52" depart="52.00" departLane="4i_0" departPos="4.10" departSpeed="0.00" departDelay="0.00" arrival="138.00" arrivalLane="2o_0" arrivalPos="492.80" arrivalSpeed="10.40" duration="86.00" routeLength="995.70" waitingTime="0.00" waitingCount="0" stopTime="0.00" timeLoss="9.63" rerouteNo="0" devices="tripinfo_EW_52" vType="car" speedFactor="0.94" vaporized=""/>
    <tripinfo id="WE_48" depart="48.00" departLane="1i_0" departPos="4.10" departSpeed="0.00" departDelay="0.00" arrival="144.00" arrivalLane="2o_0" arrivalPos="492.80" arrivalSpeed="8.46" duration="96.00" routeLength="995.90" waitingTime="4.00" waitingCount="1" stopTime="0.00" timeLoss="14.92" rerouteNo="0" devices="tripinfo_WE_48" vType="car" speedFactor="0.88" vaporized=""/>
    <tripinfo id="WE_58" depart="58.00" departLane="1i_0" departPos="4.10" departSpeed="0.00" departDelay="0.00" arrival="145.00" arrivalLane="2o_0" arrivalPos="492.80" arrivalSpeed="11.21" duration="87.00" routeLength="995.90" waitingTime="0.00" waitingCount="0" stopTime="0.00" timeLoss="17.08" rerouteNo="0" devices="tripinfo_WE_58" vType="car" speedFactor="1.01" vaporized=""/>
    <tripinfo id="NS_61" depart="61.00" departLane="2i_0" departPos="4.10" departSpeed="0.00" departDelay="0.00" arrival="148.00" arrivalLane="1o_0" arrivalPos="492.80" arrivalSpeed="9.88" duration="87.00" routeLength="995.90" waitingTime="1.00" waitingCount="1" stopTime="0.00" timeLoss="13.93" rerouteNo="0" devices="tripinfo_NS_61" vType="car" speedFactor="0.97" vaporized=""/>
    <tripinfo id="EW_66" depart="66.00" departLane="4i_0" departPos="4.10" departSpeed="0.00" departDelay="0.00" arrival="157.00" arrivalLane="1o_0" arrivalPos="492.80" arrivalSpeed="9.15" duration="91.00" routeLength="990.53" waitingTime="0.00" waitingCount="0" stopTime="0.00" timeLoss="11.86" rerouteNo="0" devices="tripinfo_EW_66" vType="car" speedFactor="0.89" vaporized=""/>
    <tripinfo id="WE_73" depart="73.00" departLane="1i_0" departPos="4.10" departSpeed="0.00" departDelay="0.00" arrival="158.00" arrivalLane="2o_0" arrivalPos="492.80" arrivalSpeed="10.06" duration="85.00" routeLength="995.90" waitingTime="0.00" waitingCount="0" stopTime="0.00" timeLoss="8.14" rerouteNo="0" devices="tripinfo_WE_73" vType="car" speedFactor="0.92" vaporized=""/>
    <tripinfo id="SN_67" depart="67.00" departLane="3i_0" departPos="10.10" departSpeed="0.00" departDelay="0.00" arrival="161.00" arrivalLane="2o_0" arrivalPos="492.80" arrivalSpeed="10.03" duration="94.00" routeLength="984.53" waitingTime="0.00" waitingCount="0" stopTime="0.00" timeLoss="18.78" rerouteNo="0" devices="tripinfo_SN_67" vType="truck" speedFactor="0.94" vaporized=""/>
    <tripinfo id="WE_77" depart="77.00" departLane="1i_0" departPos="4.10" departSpeed="0.00" departDelay="0.00" arrival="162.00" arrivalLane="3o_0" arrivalPos="492.80" arrivalSpeed="9.82" duration="85.00" routeLength="990.53" waitingTime="1.00" waitingCount="1" stopTime="0.00" timeLoss="10.20" rerouteNo="0" devices="tripinfo_WE_77" vType="car" speedFactor="0.95" vaporized=""/>
    <tripinfo id="NS_81" depart="82.00" departLane="2i_0" departPos="4.10" departSpeed="0.00" departDelay="1.00" arrival="163.00" arrivalLane="3o_0" arrivalPos="492.80" arrivalSpeed="12.24" duration="81.00" routeLength="995.70" waitingTime="0.00" waitingCount="0" stopTime="0.00" timeLoss="18.48" rerouteNo="0" devices="tripinfo_NS_81" vType="car" speedFactor="1.13" vaporized=""/>
    <tripinfo id="EW_67" depart="69.00" departLane="4i_0" departPos="4.10" departSpeed="0.00" departDelay="2.00" arrival="170.00" arrivalLane="2o_0" arrivalPos="492.80" arrivalSpeed="8.05" duration="101.00" routeLength="995.70" waitingTime="0.00" waitingCount="0" stopTime="0.00" timeLoss="15.23" rerouteNo="0" devices="tripinfo_EW_67" vType="car" speedFactor="0.83" vaporized=""/>
    <tripinfo id="EW_83" depart="83.00" departLane="4i_0" departPos="4.10" departSpeed="0.00" departDelay="0.00" arrival="172.00" arrivalLane="2o_0" arrivalPos="492.80" arrivalSpeed="9.99" duration="89.00" routeLength="995.70" waitingTime="0.00" waitingCount="0" stopTime="0.00" timeLoss="12.52" rerouteNo="0" devices="tripinfo_EW_83" vType="car" speedFactor="0.93" vaporized=""/>
    <tripinfo id="SN_92" depart="92.00" departLane="3i_0" departPos="4.10" departSpeed="0.00" departDelay="0.00" arrival="173.00" arrivalLane="4o_0" arrivalPos="492.80" arrivalSpeed="13.02" duration="81.00" routeLength="995.90" waitingTime="0.00" waitingCount="0" stopTime="0.00" timeLoss="19.96" rerouteNo="0" devices="tripinfo_SN_92" vType="car" speedFactor="1.17" vaporized=""/>
    <tripinfo id="SN_87" depart="87.00" departLane="3i_0" departPos="10.10" departSpeed="0.00" departDelay="0.00" arrival="174.00" arrivalLane="2o_0" arrivalPos="492.80" arrivalSpeed="11.38" duration="87.00" routeLength="984.53" waitingTime="0.00" waitingCount="0" stopTime="0.00" timeLoss="21.12" rerouteNo="0" devices="tripinfo_SN_87" vType="truck" speedFactor="1.09" vaporized=""/>
    <tripinfo id="EW_89" depart="91.00" departLane="4i_0" departPos="4.10" departSpeed="0.00" departDelay="2.00" arrival="176.00" arrivalLane="2o_0" arrivalPos="492.80" arrivalSpeed="11.61" duration="85.00" routeLength="995.70" waitingTime="0.00" waitingCount="0" stopTime="0.00" timeLoss="23.67" rerouteNo="0" devices="tripinfo_EW_89" vType="car" speedFactor="1.15" vaporized=""/>
    <tripinfo id="NS_101" depart="101.00" departLane="2i_0" departPos="4.10" departSpeed="0.00" departDelay="0.00" arrival="180.00" arrivalLane="4o_0" arrivalPos="492.80" arrivalSpeed="10.92" duration="79.00" routeLength="990.53" waitingTime="0.00" waitingCount="0" stopTime="0.00" timeLoss="10.02" rerouteNo="0" devices="tripinfo_NS_101" vType="car" speedFactor="1.02" vaporized=""/>
    <tripinfo id="NS_105" depart="105.00" departLane="2i_0" departPos="4.10" departSpeed="0.00" departDelay="0.00" arrival="183.00" arrivalLane="4o_0" arrivalPos="492.80" arrivalSpeed="11.70" duration="78.00" routeLength="990.53" waitingTime="0.00" waitingCount="0" stopTime="0.00" timeLoss="14.05" rerouteNo="0" devices="tripinfo_NS_105" vType="car" speedFactor="1.10" vaporized=""/>
    <tripinfo id="WE_91" depart="91.00" departLane="1i_0" departPos="10.10" departSpeed="0.00" departDelay="0.00" arrival="184.00" arrivalLane="3o_0" arrivalPos="492.80" arrivalSpeed="10.66" duration="93.00" routeLength="984.53" waitingTime="3.00" waitingCount="1" stopTime="0.00" timeLoss="23.26" rerouteNo="0" devices="tripinfo_WE_91" vType="truck" speedFactor="1.00" vaporized=""/>
    <tripinfo id="EW_95" depart="95.00" departLane="4i_0" departPos="4.10" departSpeed="0.00" departDelay="0.00" arrival="184.00" arrivalLane="2o_0" arrivalPos="492.80" arrivalSpeed="10.15" duration="89.00" routeLength="995.70" waitingTime="1.00" waitingCount="1" stopTime="0.00" timeLoss="17.55" rerouteNo="0" devices="tripinfo_EW_95" vType="car" speedFactor="0.99" vaporized=""/>
    <tripinfo id="WE_105" depart="105.00" departLane="1i_0" departPos="4.10" departSpeed="0.00" departDelay="0.00" arrival="185.00" arrivalLane="4o_0" arrivalPos="492.80" arrivalSpeed="12.49" duration="80.00" routeLength="995.70" waitingTime="0.00" waitingCount="0" stopTime="0.00" timeLoss="19.66" rerouteNo="0" devices="tripinfo_WE_105" vType="car" speedFactor="1.18" vaporized=""/>
    <tripinfo id="SN_104" depart="104.00" departLane="3i_0" departPos="4.10" departSpeed="0.00" departDelay="0.00" arrival="186.00" arrivalLane="2o_0" arrivalPos="492.80" arrivalSpeed="9.80" duration="82.00" routeLength="990.53" waitingTime="0.00" waitingCount="0" stopTime="0.00" timeLoss="9.83" rerouteNo="0" devices="tripinfo_SN_104" vType="car" speedFactor="0.97" vaporized=""/>
    <tripinfo id="WE_111" depart="111.00" departLane="1i_0" departPos="4.10" departSpeed="0.00" departDelay="0.00" arrival="190.00" arrivalLane="3o_0" arrivalPos="492.80" arrivalSpeed="11.30" duration="79.00" routeLength="990.53" waitingTime="0.00" waitingCount="0" stopTime="0.00" timeLoss="9.96" rerouteNo="0" devices="tripinfo_WE_111" vType="car" speedFactor="1.03" vaporized=""/>
    <tripinfo id="WE_112" depart="114.00" departLane="1i_0" departPos="4.10" departSpeed="0.00" departDelay="2.00" arrival="190.00" arrivalLane="4o_0" arrivalPos="492.80" arrivalSpeed="11.77" duration="76.00" routeLength="995.70" waitingTime="0.00" waitingCount="0" stopTime="0.00" timeLoss="11.00" rerouteNo="0" devices="tripinfo_WE_112" vType="car" speedFactor="1.09" vaporized=""/>
    <tripinfo id="NS_111" depart="111.00" departLane="2i_0" departPos="4.10" departSpeed="0.00" departDelay="0.00" arrival="194.00" arrivalLane="1o_0" arrivalPos="492.80" arrivalSpeed="10.03" duration="83.00" routeLength="995.90" waitingTime="0.00" waitingCount="0" stopTime="0.00" timeLoss="9.10" rerouteNo="0" devices="tripinfo_NS_111" vType="car" speedFactor="0.96" vaporized=""/>
    <tripinfo id="SN_116" depart="116.00" departLane="3i_0" departPos="4.10" departSpeed="0.00" departDelay="0.00" arrival="195.00" arrivalLane="4o_0" arrivalPos="492.80" arrivalSpeed="10.50" duration="79.00" routeLength="995.90" waitingTime="0.00" waitingCount="0" stopTime="0.00" timeLoss="10.25" rerouteNo="0" devices="tripinfo_SN_116" vType="car" speedFactor="1.04" vaporized=""/>
    <tripinfo id="WE_119" depart="119.00" departLane="1i_0" departPos="4.10" departSpeed="0.00" departDelay="0.00" arrival="196.00" arrivalLane="3o_0" arrivalPos="492.80" arrivalSpeed="10.86" duration="77.00" routeLength="990.53" waitingTime="0.00" waitingCount="0" stopTime="0.00" timeLoss="8.94" rerouteNo="0" devices="tripinfo_WE_119" vType="car" speedFactor="1.04" vaporized=""/>
    <tripinfo id="WE_120" depart="123.00" departLane="1i_0" departPos="4.10" departSpeed="0.00" departDelay="3.00" arrival="202.00" arrivalLane="3o_0" arrivalPos="492.80" arrivalSpeed="9.93" duration="79.00" routeLength="990.53" waitingTime="0.00" waitingCount="0" stopTime="0.00" timeLoss="7.45" rerouteNo="0" devices="tripinfo_WE_120" vType="car" speedFactor="1.00" vaporized=""/>
    <tripinfo id="EW_109" depart="109.00" departLane="4i_0" departPos="4.10" departSpeed="0.00" departDelay="0.00" arrival="203.00" arrivalLane="1o_0" arrivalPos="492.80" arrivalSpeed="9.37" duration="94.00" routeLength="990.53" waitingTime="2.00" waitingCount="1" stopTime="0.00" timeLoss="15.29" rerouteNo="0" devices="tripinfo_EW_109" vType="car" speedFactor="0.90" vaporized=""/>
    <tripinfo id="SN_119" depart="119.00" departLane="3i_0" departPos="4.10" departSpeed="0.00" departDelay="0.00" arrival="204.00" arrivalLane="2o_0" arrivalPos="492.80" arrivalSpeed="11.49" duration="85.00" routeLength="990.53" waitingTime="6.00" waitingCount="1" stopTime="0.00" timeLoss="19.62" rerouteNo="0" devices="tripinfo_SN_119" vType="car" speedFactor="1.09" vaporized=""/>
    <tripinfo id="NS_130" depart="130.00" departLane="2i_0" departPos="4.10" departSpeed="0.00" departDelay="0.00" arrival="223.00" arrivalLane="1o_0" arrivalPos="492.80" arrivalSpeed="8.61" duration="93.00" routeLength="995.90" waitingTime="0.00" waitingCount="0" stopTime="0.00" timeLoss="10.55" rerouteNo="0" devices="tripinfo_NS_130" vType="car" speedFactor="0.85" vaporized=""/>
    <tripinfo id="WE_129" depart="129.00" departLane="1i_0" departPos="4.10" departSpeed="0.00" departDelay="0.00" arrival="224.00" arrivalLane="2o_0" arrivalPos="492.80" arrivalSpeed="9.13" duration="95.00" routeLength="995.90" waitingTime="1.00" waitingCount="1" stopTime="0.00" timeLoss="13.97" rerouteNo="0" devices="tripinfo_WE_129" vType="car" speedFactor="0.88" vaporized=""/>
    <tripinfo id="SN_128" depart="128.00" departLane="3i_0" departPos="10.10" departSpeed="0.00" departDelay="0.00" arrival="226.00" arrivalLane="1o_0" arrivalPos="492.80" arrivalSpeed="10.31" duration="98.00" routeLength="989.70" waitingTime="1.00" waitingCount="1" stopTime="0.00" timeLoss="23.48" rerouteNo="0" devices="tripinfo_SN_128" vType="truck" speedFactor="0.95" vaporized=""/>
    <tripinfo id="SN_137" depart="137.00" departLane="3i_0" departPos="4.10" departSpeed="0.00" departDelay="0.00" arrival="226.00" arrivalLane="4o_0" arrivalPos="492.80" arrivalSpeed="11.05" duration="89.00" routeLength="995.90" waitingTime="0.00" waitingCount="0" stopTime="0.00" timeLoss="19.44" rerouteNo="0" devices="tripinfo_SN_137" vType="car" speedFactor="1.02" vaporized=""/>
    <tripinfo id="EW_153" depart="153.00" departLane="4i_0" departPos="4.10" departSpeed="0.00" departDelay="0.00" arrival="226.00" arrivalLane="2o_0" arrivalPos="492.80" arrivalSpeed="11.85" duration="73.00" routeLength="995.70" waitingTime="0.00" waitingCount="0" stopTime="0.00" timeLoss="10.57" rerouteNo="0" devices="tripinfo_EW_153" vType="car" speedFactor="1.14" vaporized=""/>
    <tripinfo id="WE_130" depart="135.00" departLane="1i_0" departPos="4.10" departSpeed="0.00" departDelay="5.00" arrival="228.00" arrivalLane="3o_0" arrivalPos="492.80" arrivalSpeed="8.58" duration="93.00" routeLength="990.53" waitingTime="0.00" waitingCount="0" stopTime="0.00" timeLoss="9.90" rerouteNo="0" devices="tripinfo_WE_130" vType="car" speedFactor="0.85" vaporized=""/>
    <tripinfo id="NS_133" depart="133.00" departLane="2i_0" departPos="4.10" departSpeed="0.00" departDelay="0.00" arrival="228.00" arrivalLane="1o_0" arrivalPos="492.80" arrivalSpeed="12.90" duration="95.00" routeLength="995.90" waitingTime="5.00" waitingCount="1" stopTime="0.00" timeLoss="34.30" rerouteNo="0" devices="tripinfo_NS_133" vType="car" speedFactor="1.17" vaporized=""/>
    <tripinfo id="EW_146" depart="146.00" departLane="4i_0" departPos="4.10" departSpeed="0.00" departDelay="0.00" arrival="230.00" arrivalLane="3o_0" arrivalPos="492.80" arrivalSpeed="11.17" duration="84.00" routeLength="995.90" waitingTime="0.00" waitingCount="0" stopTime="0.00" timeLoss="18.79" rerouteNo="0" devices="tripinfo_EW_146" vType="car" speedFactor="1.10" vaporized=""/>
    <tripinfo id="NS_151" depart="151.00" departLane="2i_0" departPos="4.10" departSpeed="0.00" departDelay="0.00" arrival="235.00" arrivalLane="3o_0" arrivalPos="492.80" arrivalSpeed="10.72" duration="84.00" routeLength="995.70" waitingTime="0.00" waitingCount="0" stopTime="0.00" timeLoss="13.35" rerouteNo="0" devices="tripinfo_NS_151" vType="car" speedFactor="1.00" vaporized=""/>
    <tripinfo id="NS_165" depart="165.00" departLane="2i_0" departPos="4.10" departSpeed="0.00" departDelay="0.00" arrival="239.00" arrivalLane="3o_0" arrivalPos="492.80" arrivalSpeed="11.36" duration="74.00" routeLength="995.70" waitingTime="0.00" waitingCount="0" stopTime="0.00" timeLoss="10.35" rerouteNo="0" devices="tripinfo_NS_165" vType="car" speedFactor="1.12" vaporized=""/>
    <tripinfo id="SN_152" depart="152.00" departLane="3i_0" departPos="4.10" departSpeed="0.00" departDelay="0.00" arrival="245.00" arrivalLane="1o_0" arrivalPos="492.80" arrivalSpeed="9.64" duration="93.00" routeLength="995.70" waitingTime="2.00" waitingCount="1" stopTime="0.00" timeLoss="14.03" rerouteNo="0" devices="tripinfo_SN_152" vType="car" speedFactor="0.90" vaporized=""/>
    <tripinfo id="NS_152" depart="154.00" departLane="2i_0" departPos="4.10" departSpeed="0.00" departDelay="2.00" arrival="247.00" arrivalLane="1o_0" arrivalPos="492.80" arrivalSpeed="10.90" duration="93.00" routeLength="995.90" waitingTime="2.00" waitingCount="1" stopTime="0.00" timeLoss="21.59" rerouteNo="0" devices="tripinfo_NS_152" vType="car" speedFactor="1.00" vaporized=""/>
    <tripinfo id="SN_160" depart="163.00" departLane="3i_0" departPos="4.10" departSpeed="0.00" departDelay="3.00" arrival="247.00" arrivalLane="4o_0" arrivalPos="492.80" arrivalSpeed="10.09" duration="84.00" routeLength="995.90" waitingTime="0.00" waitingCount="0" stopTime="0.00" timeLoss="15.07" rerouteNo="0" devices="tripinfo_SN_160" vType="car" speedFactor="1.02" vaporized=""/>
    <tripinfo id="EW_165" depart="165.00" departLane="4i_0" departPos="4.10" departSpeed="0.00" departDelay="0.00" arrival="249.00" arrivalLane="1o_0" arrivalPos="492.80" arrivalSpeed="11.36" duration="84.00" routeLength="990.53" waitingTime="0.00" waitingCount="0" stopTime="0.00" timeLoss="18.18" rerouteNo="0" devices="tripinfo_EW_165" vType="car" speedFactor="1.08" vaporized=""/>
    <tripinfo id="WE_167" depart="167.00" departLane="1i_0" departPos="4.10" departSpeed="0.00" departDelay="0.00" arrival="250.00" arrivalLane="4o_0" arrivalPos="492.80" arrivalSpeed="10.20" duration="83.00" routeLength="995.70" waitingTime="1.00" waitingCount="1" stopTime="0.00" timeLoss="13.52" rerouteNo="0" devices="tripinfo_WE_167" vType="car" speedFactor="1.02" vaporized=""/>
    <tripinfo id="SN_161" depart="167.00" departLane="3i_0" departPos="10.10" departSpeed="0.00" departDelay="6.00" arrival="258.00" arrivalLane="2o_0" arrivalPos="492.80" arrivalSpeed="10.81" duration="91.00" routeLength="984.53" waitingTime="1.00" waitingCount="1" stopTime="0.00" timeLoss="19.95" rerouteNo="0" devices="tripinfo_SN_161" vType="truck" speedFactor="0.98" vaporized=""/>
    <tripinfo id="NS_183" depart="184.00" departLane="2i_0" departPos="4.10" departSpeed="0.00" departDelay="1.00" arrival="260.00" arrivalLane="4o_0" arrivalPos="492.80" arrivalSpeed="10.97" duration="76.00" routeLength="990.53" waitingTime="0.00" waitingCount="0" stopTime="0.00" timeLoss="7.74" rerouteNo="0" devices="tripinfo_NS_183" vType="car" speedFactor="1.04" vaporized=""/>
    <tripinfo id="EW_171" depart="173.00" departLane="4i_0" departPos="4.10" departSpeed="0.00" departDelay="2.00" arrival="262.00" arrivalLane="2o_0" arrivalPos="492.80" arrivalSpeed="10.50" duration="89.00" routeLength="995.70" waitingTime="3.00" waitingCount="1" stopTime="0.00" timeLoss="17.44" rerouteNo="0" devices="tripinfo_EW_171" vType="car" speedFactor="0.99" vaporized=""/>
    <tripinfo id="NS_175" depart="176.00" departLane="2i_0" departPos="4.10" departSpeed="0.00" departDelay="1.00" arrival="265.00" arrivalLane="1o_0" arrivalPos="492.80" arrivalSpeed="9.66" duration="89.00" routeLength="995.90" waitingTime="0.00" waitingCount="0" stopTime="0.00" timeLoss="8.83" rerouteNo="0" devices="tripinfo_NS_175" vType="car" speedFactor="0.88" vaporized=""/>
    <tripinfo id="SN_175" depart="175.00" departLane="3i_0" departPos="4.10" departSpeed="0.00" departDelay="0.00" arrival="267.00" arrivalLane="1o_0" arrivalPos="492.80" arrivalSpeed="10.03" duration="92.00" routeLength="995.70" waitingTime="0.00" waitingCount="0" stopTime="0.00" timeLoss="13.78" rerouteNo="0" devices="tripinfo_SN_175" vType="car" speedFactor="0.91" vaporized=""/>
    <tripinfo id="NS_185" depart="187.00" departLane="2i_0" departPos="4.10" departSpeed="0.00" departDelay="2.00" arrival="267.00" arrivalLane="3o_0" arrivalPos="492.80" arrivalSpeed="10.96" duration="80.00" routeLength="995.70" waitingTime="0.00" waitingCount="0" stopTime="0.00" timeLoss="10.74" rerouteNo="0" devices="tripinfo_NS_185" vType="car" speedFactor="1.02" vaporized=""/>
    <tripinfo id="EW_173" depart="176.00" departLane="4i_0" departPos="4.10" departSpeed="0.00" departDelay="3.00" arrival="269.00" arrivalLane="1o_0" arrivalPos="492.80" arrivalSpeed="9.93" duration="93.00" routeLength="990.53" waitingTime="2.00" waitingCount="1" stopTime="0.00" timeLoss="18.07" rerouteNo="0" devices="tripinfo_EW_173" vType="car" speedFactor="0.94" vaporized=""/>
    <tripinfo id="SN_192" depart="192.00" departLane="3i_0" departPos="4.10" departSpeed="0.00" departDelay="0.00" arrival="275.00" arrivalLane="2o_0" arrivalPos="492.80" arrivalSpeed="10.53" duration="83.00" routeLength="990.53" waitingTime="0.00" waitingCount="0" stopTime="0.00" timeLoss="13.68" rerouteNo="0" devices="tripinfo_SN_192" vType="car" speedFactor="1.02" vaporized=""/>
    <tripinfo id="SN_182" depart="184.00" departLane="3i_0" departPos="4.10" departSpeed="0.00" departDelay="2.00" arrival="278.00" arrivalLane="1o_0" arrivalPos="492.80" arrivalSpeed="9.85" duration="94.00" routeLength="995.70" waitingTime="4.00" waitingCount="1" stopTime="0.00" timeLoss="16.32" rerouteNo="0" devices="tripinfo_SN_182" vType="car" speedFactor="0.91" vaporized=""/>
    <tripinfo id="NS_195" depart="195.00" departLane="2i_0" departPos="4.10" departSpeed="0.00" departDelay="0.00" arrival="280.00" arrivalLane="1o_0" arrivalPos="492.80" arrivalSpeed="11.40" duration="85.00" routeLength="995.90" waitingTime="0.00" waitingCount="0" stopTime="0.00" timeLoss="17.28" rerouteNo="0" devices="tripinfo_NS_195" vType="car" speedFactor="1.06" vaporized=""/>
    <tripinfo id="SN_199" depart="199.00" departLane="3i_0" departPos="4.10" departSpeed="0.00" departDelay="0.00" arrival="280.00" arrivalLane="2o_0" arrivalPos="492.80" arrivalSpeed="10.20" duration="81.00" routeLength="990.53" waitingTime="0.00" waitingCount="0" stopTime="0.00" timeLoss="9.16" rerouteNo="0" devices="tripinfo_SN_199" vType="car" speedFactor="0.98" vaporized=""/>
    <tripinfo id="WE_193" depart="194.00" departLane="1i_0" departPos="4.10" departSpeed="0.00" departDelay="1.00" arrival="281.00" arrivalLane="4o_0" arrivalPos="492.80" arrivalSpeed="9.53" duration="87.00" routeLength="995.70" waitingTime="1.00" waitingCount="1" stopTime="0.00" timeLoss="14.00" rerouteNo="0" devices="tripinfo_WE_193" vType="car" speedFactor="0.97" vaporized=""/>
    <tripinfo id="EW_196" depart="196.00" departLane="4i_0" departPos="4.10" departSpeed="0.00" departDelay="0.00" arrival="281.00" arrivalLane="3o_0" arrivalPos="492.80" arrivalSpeed="10.58" duration="85.00" routeLength="995.90" waitingTime="0.00" waitingCount="0" stopTime="0.00" timeLoss="10.35" rerouteNo="0" devices="tripinfo_EW_196" vType="car" speedFactor="0.96" vaporized=""/>
    <tripinfo id="NS_204" depart="204.00" departLane="2i_0" departPos="4.10" departSpeed="0.00" departDelay="0.00" arrival="282.00" arrivalLane="1o_0" arrivalPos="492.80" arrivalSpeed="10.51" duration="78.00" routeLength="995.90" waitingTime="0.00" waitingCount="0" stopTime="0.00" timeLoss="7.91" rerouteNo="0" devices="tripinfo_NS_204" vType="car" speedFactor="1.01" vaporized=""/>