<?xml version="1.0" encoding="UTF-8"?>

<!-- generated on 2024-05-05 17:13:28 by Eclipse SUMO sumo Version 1.19.0
<configuration xmlns:xsi="http://www.w3.org/2001/XMLSchema-instance" xsi:noNamespaceSchemaLocation="http://sumo.dlr.de/xsd/sumoConfiguration.xsd">

    <input>
        <net-file value="twoone.net.xml"/>
        <route-files value="route_gen.rou.xml"/>
    </input>

    <output>
        <tripinfo-output value="tripinfo_epi271.xml"/>
    </output>

    <report>
        <no-warnings value="true"/>
    </report>

    <traci_server>
        <remote-port value="38655"/>
    </traci_server>

</configuration>
-->

<tripinfos xmlns:xsi="http://www.w3.org/2001/XMLSchema-instance" xsi:noNamespaceSchemaLocation="http://sumo.dlr.de/xsd/tripinfo_file.xsd">
    <tripinfo id="NS_1" depart="1.00" departLane="2i_0" departPos="4.10" departSpeed="0.00" departDelay="0.00" arrival="76.00" arrivalLane="4o_0" arrivalPos="492.80" arrivalSpeed="11.34" duration="75.00" routeLength="990.53" waitingTime="0.00" waitingCount="0" stopTime="0.00" timeLoss="8.61" rerouteNo="0" devices="tripinfo_NS_1" vType="car" speedFactor="1.06" vaporized=""/>
    <tripinfo id="NS_6" depart="6.00" departLane="2i_0" departPos="4.10" departSpeed="0.00" departDelay="0.00" arrival="80.00" arrivalLane="4o_0" arrivalPos="492.80" arrivalSpeed="10.84" duration="74.00" routeLength="990.53" waitingTime="0.00" waitingCount="0" stopTime="0.00" timeLoss="9.02" rerouteNo="0" devices="tripinfo_NS_6" vType="car" speedFactor="1.08" vaporized=""/>
    <tripinfo id="EW_4" depart="4.00" departLane="4i_0" departPos="4.10" departSpeed="0.00" departDelay="0.00" arrival="88.00" arrivalLane="1o_0" arrivalPos="492.80" arrivalSpeed="10.36" duration="84.00" routeLength="990.53" waitingTime="0.00" waitingCount="0" stopTime="0.00" timeLoss="8.91" rerouteNo="0" devices="tripinfo_EW_4" vType="car" speedFactor="0.94" vaporized=""/>
    <tripinfo id="EW_6" depart="7.00" departLane="4i_0" departPos="4.10" departSpeed="0.00" departDelay="1.00" arrival="90.00" arrivalLane="1o_0" arrivalPos="492.80" arrivalSpeed="10.57" duration="83.00" routeLength="990.53" waitingTime="0.00" waitingCount="0" stopTime="0.00" timeLoss="12.84" rerouteNo="0" devices="tripinfo_EW_6" vType="car" speedFactor="1.01" vaporized=""/>
    <tripinfo id="EW_8" depart="10.00" departLane="4i_0" departPos="4.10" departSpeed="0.00" departDelay="2.00" arrival="94.00" arrivalLane="1o_0" arrivalPos="492.80" arrivalSpeed="11.34" duration="84.00" routeLength="990.53" waitingTime="3.00" waitingCount="1" stopTime="0.00" timeLoss="15.84" rerouteNo="0" devices="tripinfo_EW_8" vType="car" speedFactor="1.03" vaporized=""/>
    <tripinfo id="SN_13" depart="13.00" departLane="3i_0" departPos="4.10" departSpeed="0.00" departDelay="0.00" arrival="97.00" arrivalLane="1o_0" arrivalPos="492.80" arrivalSpeed="10.95" duration="84.00" routeLength="995.70" waitingTime="0.00" waitingCount="0" stopTime="0.00" timeLoss="15.84" rerouteNo="0" devices="tripinfo_SN_13" vType="car" speedFactor="1.05" vaporized=""/>
    <tripinfo id="NS_27" depart="27.00" departLane="2i_0" departPos="4.10" departSpeed="0.00" departDelay="0.00" arrival="99.00" arrivalLane="4o_0" arrivalPos="492.80" arrivalSpeed="11.86" duration="72.00" routeLength="990.53" waitingTime="0.00" waitingCount="0" stopTime="0.00" timeLoss="7.28" rerouteNo="0" devices="tripinfo_NS_27" vType="car" speedFactor="1.09" vaporized=""/>
    <tripinfo id="WE_12" depart="12.00" departLane="1i_0" departPos="4.10" departSpeed="0.00" departDelay="0.00" arrival="105.00" arrivalLane="3o_0" arrivalPos="492.80" arrivalSpeed="8.52" duration="93.00" routeLength="990.53" waitingTime="0.00" waitingCount="0" stopTime="0.00" timeLoss="7.98" rerouteNo="0" devices="tripinfo_WE_12" vType="car" speedFactor="0.83" vaporized=""/>
    <tripinfo id="SN_30" depart="30.00" departLane="3i_0" departPos="4.10" departSpeed="0.00" departDelay="0.00" arrival="106.00" arrivalLane="4o_0" arrivalPos="492.80" arrivalSpeed="10.92" duration="76.00" routeLength="995.90" waitingTime="0.00" waitingCount="0" stopTime="0.00" timeLoss="6.93" rerouteNo="0" devices="tripinfo_SN_30" vType="car" speedFactor="1.03" vaporized=""/>
    <tripinfo id="SN_17" depart="17.00" departLane="3i_0" departPos="4.10" departSpeed="0.00" departDelay="0.00" arrival="108.00" arrivalLane="1o_0" arrivalPos="492.80" arrivalSpeed="9.29" duration="91.00" routeLength="995.70" waitingTime="0.00" waitingCount="0" stopTime="0.00" timeLoss="10.43" rerouteNo="0" devices="tripinfo_SN_17" vType="car" speedFactor="0.89" vaporized=""/>
    <tripinfo id="EW_24" depart="24.00" departLane="4i_0" departPos="4.10" departSpeed="0.00" departDelay="0.00" arrival="115.00" arrivalLane="2o_0" arrivalPos="492.80" arrivalSpeed="9.38" duration="91.00" routeLength="995.70" waitingTime="2.00" waitingCount="1" stopTime="0.00" timeLoss="15.74" rerouteNo="0" devices="tripinfo_EW_24" vType="car" speedFactor="0.94" vaporized=""/>
    <tripinfo id="WE_36" depart="36.00" departLane="1i_0" departPos="10.10" departSpeed="0.00" departDelay="0.00" arrival="118.00" arrivalLane="2o_0" arrivalPos="492.80" arrivalSpeed="11.31" duration="82.00" routeLength="989.90" waitingTime="0.00" waitingCount="0" stopTime="0.00" timeLoss="14.39" rerouteNo="0" devices="tripinfo_WE_36" vType="truck" speedFactor="1.06" vaporized=""/>
    <tripinfo id="NS_39" depart="39.00" departLane="2i_0" departPos="4.10" departSpeed="0.00" departDelay="0.00" arrival="128.00" arrivalLane="3o_0" arrivalPos="492.80" arrivalSpeed="9.92" duration="89.00" routeLength="995.70" waitingTime="4.00" waitingCount="1" stopTime="0.00" timeLoss="17.49" rerouteNo="0" devices="tripinfo_NS_39" vType="car" speedFactor="0.99" vaporized=""/>
    <tripinfo id="WE_40" depart="40.00" departLane="1i_0" departPos="4.10" departSpeed="0.00" departDelay="0.00" arrival="137.00" arrivalLane="4o_0" arrivalPos="492.80" arrivalSpeed="9.05" duration="97.00" routeLength="995.70" waitingTime="5.00" waitingCount="1" stopTime="0.00" timeLoss="20.68" rerouteNo="0" devices="tripinfo_WE_40" vType="car" speedFactor="0.93" vaporized=""/>
    <tripinfo id="NS_40" depart="41.00" departLane="2i_0" departPos="4.10" departSpeed="0.00" departDelay="1.00" arrival="138.00" arrivalLane="3o_0" arrivalPos="492.80" arrivalSpeed="8.56" duration="97.00" routeLength="995.70" waitingTime="1.00" waitingCount="1" stopTime="0.00" timeLoss="16.11" rerouteNo="0" devices="tripinfo_NS_40" vType="car" speedFactor="0.88" vaporized=""/>
    <tripinfo id="NS_48" depart="48.00" departLane="2i_0" departPos="4.10" departSpeed="0.00" departDelay="0.00" arrival="138.00" arrivalLane="1o_0" arrivalPos="492.80" arrivalSpeed="10.76" duration="90.00" routeLength="995.90" waitingTime="3.00" waitingCount="2" stopTime="0.00" timeLoss="20.19" rerouteNo="0" devices="tripinfo_NS_48" vType="car" speedFactor="1.02" vaporized=""/>
    <tripinfo id="NS_66" depart="66.00" departLane="2i_0" departPos="4.10" departSpeed="0.00" departDelay="0.00" arrival="140.00" arrivalLane="1o_0" arrivalPos="492.80" arrivalSpeed="12.33" duration="74.00" routeLength="995.90" waitingTime="0.00" waitingCount="0" stopTime="0.00" timeLoss="10.66" rerouteNo="0" devices="tripinfo_NS_66" vType="car" speedFactor="1.13" vaporized=""/>
    <tripinfo id="WE_43" depart="43.00" departLane="1i_0" departPos="4.10" departSpeed="0.00" departDelay="0.00" arrival="144.00" arrivalLane="2o_0" arrivalPos="492.80" arrivalSpeed="9.66" duration="101.00" routeLength="995.90" waitingTime="4.00" waitingCount="1" stopTime="0.00" timeLoss="24.91" rerouteNo="0" devices="tripinfo_WE_43" vType="car" speedFactor="0.94" vaporized=""/>
    <tripinfo id="EW_25" depart="27.00" departLane="4i_0" departPos="4.10" departSpeed="0.00" departDelay="2.00" arrival="146.00" arrivalLane="3o_0" arrivalPos="492.80" arrivalSpeed="9.09" duration="119.00" routeLength="995.90" waitingTime="18.00" waitingCount="4" stopTime="0.00" timeLoss="35.98" rerouteNo="0" devices="tripinfo_EW_25" vType="car" speedFactor="0.86" vaporized=""/>
    <tripinfo id="WE_52" depart="52.00" departLane="1i_0" departPos="4.10" departSpeed="0.00" departDelay="0.00" arrival="147.00" arrivalLane="3o_0" arrivalPos="492.80" arrivalSpeed="10.17" duration="95.00" routeLength="990.53" waitingTime="0.00" waitingCount="0" stopTime="0.00" timeLoss="25.57" rerouteNo="0" devices="tripinfo_WE_52" vType="car" speedFactor="1.01" vaporized=""/>
    <tripinfo id="WE_53" depart="55.00" departLane="1i_0" departPos="4.10" departSpeed="0.00" departDelay="2.00" arrival="149.00" arrivalLane="3o_0" arrivalPos="492.80" arrivalSpeed="10.81" duration="94.00" routeLength="990.53" waitingTime="0.00" waitingCount="0" stopTime="0.00" timeLoss="21.78" rerouteNo="0" devices="tripinfo_WE_53" vType="car" speedFactor="0.97" vaporized=""/>
    <tripinfo id="SN_31" depart="32.00" departLane="3i_0" departPos="4.10" departSpeed="0.00" departDelay="1.00" arrival="150.00" arrivalLane="4o_0" arrivalPos="492.80" arrivalSpeed="10.57" duration="118.00" routeLength="995.90" waitingTime="39.00" waitingCount="1" stopTime="0.00" timeLoss="50.19" rerouteNo="0" devices="tripinfo_SN_31" vType="car" speedFactor="1.05" vaporized=""/>
    <tripinfo id="WE_73" depart="73.00" departLane="1i_0" departPos="4.10" departSpeed="0.00" departDelay="0.00" arrival="152.00" arrivalLane="4o_0" arrivalPos="492.80" arrivalSpeed="12.49" duration="79.00" routeLength="995.70" waitingTime="0.00" waitingCount="0" stopTime="0.00" timeLoss="17.01" rerouteNo="0" devices="tripinfo_WE_73" vType="car" speedFactor="1.15" vaporized=""/>
    <tripinfo id="WE_59" depart="59.00" departLane="1i_0" departPos="4.10" departSpeed="0.00" departDelay="0.00" arrival="153.00" arrivalLane="3o_0" arrivalPos="492.80" arrivalSpeed="9.39" duration="94.00" routeLength="990.53" waitingTime="0.00" waitingCount="0" stopTime="0.00" timeLoss="13.40" rerouteNo="0" devices="tripinfo_WE_59" vType="car" speedFactor="0.87" vaporized=""/>
    <tripinfo id="EW_44" depart="44.00" departLane="4i_0" departPos="4.10" departSpeed="0.00" departDelay="0.00" arrival="154.00" arrivalLane="2o_0" arrivalPos="492.80" arrivalSpeed="12.12" duration="110.00" routeLength="995.70" waitingTime="25.00" waitingCount="5" stopTime="0.00" timeLoss="49.02" rerouteNo="0" devices="tripinfo_EW_44" vType="car" speedFactor="1.16" vaporized=""/>
    <tripinfo id="NS_70" depart="70.00" departLane="2i_0" departPos="4.10" departSpeed="0.00" departDelay="0.00" arrival="155.00" arrivalLane="3o_0" arrivalPos="492.80" arrivalSpeed="12.41" duration="85.00" routeLength="995.70" waitingTime="0.00" waitingCount="0" stopTime="0.00" timeLoss="24.55" rerouteNo="0" devices="tripinfo_NS_70" vType="car" speedFactor="1.18" vaporized=""/>
    <tripinfo id="WE_79" depart="79.00" departLane="1i_0" departPos="4.10" departSpeed="0.00" departDelay="0.00" arrival="157.00" arrivalLane="3o_0" arrivalPos="492.80" arrivalSpeed="10.46" duration="78.00" routeLength="990.53" waitingTime="0.00" waitingCount="0" stopTime="0.00" timeLoss="8.67" rerouteNo="0" devices="tripinfo_WE_79" vType="car" speedFactor="1.02" vaporized=""/>
    <tripinfo id="SN_40" depart="40.00" departLane="3i_0" departPos="4.10" departSpeed="0.00" departDelay="0.00" arrival="160.00" arrivalLane="4o_0" arrivalPos="492.80" arrivalSpeed="9.91" duration="120.00" routeLength="995.90" waitingTime="29.00" waitingCount="1" stopTime="0.00" timeLoss="44.89" rerouteNo="0" devices="tripinfo_SN_40" vType="car" speedFactor="0.94" vaporized=""/>
    <tripinfo id="NS_74" depart="74.00" departLane="2i_0" departPos="10.10" departSpeed="0.00" departDelay="0.00" arrival="163.00" arrivalLane="4o_0" arrivalPos="492.80" arrivalSpeed="10.91" duration="89.00" routeLength="984.53" waitingTime="0.00" waitingCount="0" stopTime="0.00" timeLoss="18.64" rerouteNo="0" devices="tripinfo_NS_74" vType="truck" speedFactor="1.00" vaporized=""/>
    <tripinfo id="NS_76" depart="78.00" departLane="2i_0" departPos="4.10" departSpeed="0.00" departDelay="2.00" arrival="163.00" arrivalLane="3o_0" arrivalPos="492.80" arrivalSpeed="11.84" duration="85.00" routeLength="995.70" waitingTime="4.00" waitingCount="1" stopTime="0.00" timeLoss="24.09" rerouteNo="0" devices="tripinfo_NS_76" vType="car" speedFactor="1.17" vaporized=""/>
    <tripinfo id="WE_83" depart="83.00" departLane="1i_0" departPos="4.10" departSpeed="0.00" departDelay="0.00" arrival="165.00" arrivalLane="2o_0" arrivalPos="492.80" arrivalSpeed="9.57" duration="82.00" routeLength="995.90" waitingTime="0.00" waitingCount="0" stopTime="0.00" timeLoss="8.78" rerouteNo="0" devices="tripinfo_WE_83" vType="car" speedFactor="0.97" vaporized=""/>
    <tripinfo id="WE_87" depart="90.00" departLane="1i_0" departPos="4.10" departSpeed="0.00" departDelay="3.00" arrival="167.00" arrivalLane="2o_0" arrivalPos="492.80" arrivalSpeed="13.04" duration="77.00" routeLength="995.90" waitingTime="0.00" waitingCount="0" stopTime="0.00" timeLoss="16.15" rerouteNo="0" devices="tripinfo_WE_87" vType="car" speedFactor="1.18" vaporized=""/>
    <tripinfo id="NS_77" depart="80.00" departLane="2i_0" departPos="4.10" departSpeed="0.00" departDelay="3.00" arrival="174.00" arrivalLane="1o_0" arrivalPos="492.80" arrivalSpeed="10.39" duration="94.00" routeLength="995.90" waitingTime="4.00" waitingCount="3" stopTime="0.00" timeLoss="22.96" rerouteNo="0" devices="tripinfo_NS_77" vType="car" speedFactor="0.99" vaporized=""/>
    <tripinfo id="EW_55" depart="55.00" departLane="4i_0" departPos="4.10" departSpeed="0.00" departDelay="0.00" arrival="178.00" arrivalLane="3o_0" arrivalPos="492.80" arrivalSpeed="9.72" duration="123.00" routeLength="995.90" waitingTime="21.00" waitingCount="4" stopTime="0.00" timeLoss="43.05" rerouteNo="0" devices="tripinfo_EW_55" vType="car" speedFactor="0.89" vaporized=""/>
    <tripinfo id="SN_56" depart="56.00" departLane="3i_0" departPos="4.10" departSpeed="0.00" departDelay="0.00" arrival="179.00" arrivalLane="2o_0" arrivalPos="492.80" arrivalSpeed="8.46" duration="123.00" routeLength="990.53" waitingTime="18.00" waitingCount="2" stopTime="0.00" timeLoss="37.89" rerouteNo="0" devices="tripinfo_SN_56" vType="car" speedFactor="0.83" vaporized=""/>
    <tripinfo id="EW_65" depart="65.00" departLane="4i_0" departPos="4.10" departSpeed="0.00" departDelay="0.00" arrival="180.00" arrivalLane="3o_0" arrivalPos="492.80" arrivalSpeed="9.95" duration="115.00" routeLength="995.90" waitingTime="15.00" waitingCount="3" stopTime="0.00" timeLoss="40.06" rerouteNo="0" devices="tripinfo_EW_65" vType="car" speedFactor="0.95" vaporized=""/>
    <tripinfo id="SN_64" depart="64.00" departLane="3i_0" departPos="10.10" departSpeed="0.00" departDelay="0.00" arrival="184.00" arrivalLane="1o_0" arrivalPos="492.80" arrivalSpeed="10.11" duration="120.00" routeLength="989.70" waitingTime="10.00" waitingCount="3" stopTime="0.00" timeLoss="46.17" rerouteNo="0" devices="tripinfo_SN_64" vType="truck" speedFactor="0.96" vaporized=""/>
    <tripinfo id="NS_107" depart="107.00" departLane="2i_0" departPos="4.10" departSpeed="0.00" departDelay="0.00" arrival="185.00" arrivalLane="4o_0" arrivalPos="492.80" arrivalSpeed="11.00" duration="78.00" routeLength="990.53" waitingTime="0.00" waitingCount="0" stopTime="0.00" timeLoss="10.29" rerouteNo="0" devices="tripinfo_NS_107" vType="car" speedFactor="1.04" vaporized=""/>
    <tripinfo id="NS_94" depart="94.00" departLane="2i_0" departPos="4.10" departSpeed="0.00" departDelay="0.00" arrival="188.00" arrivalLane="1o_0" arrivalPos="492.80" arrivalSpeed="10.56" duration="94.00" routeLength="995.90" waitingTime="4.00" waitingCount="1" stopTime="0.00" timeLoss="19.88" rerouteNo="0" devices="tripinfo_NS_94" vType="car" speedFactor="0.96" vaporized=""/>
    <tripinfo id="WE_96" depart="97.00" departLane="1i_0" departPos="4.10" departSpeed="0.00" departDelay="1.00" arrival="188.00" arrivalLane="3o_0" arrivalPos="492.80" arrivalSpeed="12.10" duration="91.00" routeLength="990.53" waitingTime="7.00" waitingCount="2" stopTime="0.00" timeLoss="26.51" rerouteNo="0" devices="tripinfo_WE_96" vType="car" speedFactor="1.09" vaporized=""/>
    <tripinfo id="EW_93" depart="93.00" departLane="4i_0" departPos="4.10" departSpeed="0.00" departDelay="0.00" arrival="190.00" arrivalLane="1o_0" arrivalPos="492.80" arrivalSpeed="10.91" duration="97.00" routeLength="990.53" waitingTime="8.00" waitingCount="2" stopTime="0.00" timeLoss="28.33" rerouteNo="0" devices="tripinfo_EW_93" vType="car" speedFactor="1.03" vaporized=""/>
    <tripinfo id="NS_109" depart="110.00" departLane="2i_0" departPos="4.10" departSpeed="0.00" departDelay="1.00" arrival="193.00" arrivalLane="3o_0" arrivalPos="492.80" arrivalSpeed="10.41" duration="83.00" routeLength="995.70" waitingTime="0.00" waitingCount="0" stopTime="0.00" timeLoss="14.65" rerouteNo="0" devices="tripinfo_NS_109" vType="car" speedFactor="1.04" vaporized=""/>
    <tripinfo id="WE_93" depart="94.00" departLane="1i_0" departPos="4.10" departSpeed="0.00" departDelay="1.00" arrival="197.00" arrivalLane="4o_0" arrivalPos="492.80" arrivalSpeed="9.27" duration="103.00" routeLength="995.70" waitingTime="8.00" waitingCount="2" stopTime="0.00" timeLoss="23.89" rerouteNo="0" devices="tripinfo_WE_93" vType="car" speedFactor="0.90" vaporized=""/>
    <tripinfo id="NS_110" depart="113.00" departLane="2i_0" departPos="4.10" departSpeed="0.00" departDelay="3.00" arrival="198.00" arrivalLane="4o_0" arrivalPos="492.80" arrivalSpeed="11.69" duration="85.00" routeLength="990.53" waitingTime="0.00" waitingCount="0" stopTime="0.00" timeLoss="20.28" rerouteNo="0" devices="tripinfo_NS_110" vType="car" speedFactor="1.09" vaporized=""/>
    <tripinfo id="SN_90" depart="90.00" departLane="3i_0" departPos="4.10" departSpeed="0.00" departDelay="0.00" arrival="199.00" arrivalLane="2o_0" arrivalPos="492.80" arrivalSpeed="11.43" duration="109.00" routeLength="990.53" waitingTime="14.00" waitingCount="4" stopTime="0.00" timeLoss="45.25" rerouteNo="0" devices="tripinfo_SN_90" vType="car" speedFactor="1.10" vaporized=""/>
    <tripinfo id="WE_115" depart="115.00" departLane="1i_0" departPos="4.10" departSpeed="0.00" departDelay="0.00" arrival="200.00" arrivalLane="4o_0" arrivalPos="492.80" arrivalSpeed="10.19" duration="85.00" routeLength="995.70" waitingTime="0.00" waitingCount="0" stopTime="0.00" timeLoss="14.03" rerouteNo="0" devices="tripinfo_WE_115" vType="car" speedFactor="1.00" vaporized=""/>
    <tripinfo id="WE_127" depart="127.00" departLane="1i_0" departPos="4.10" departSpeed="0.00" departDelay="0.00" arrival="201.00" arrivalLane="2o_0" arrivalPos="492.80" arrivalSpeed="12.55" duration="74.00" routeLength="995.90" waitingTime="0.00" waitingCount="0" stopTime="0.00" timeLoss="13.18" rerouteNo="0" devices="tripinfo_WE_127" vType="car" speedFactor="1.17" vaporized=""/>
    <tripinfo id="SN_67" depart="68.00" departLane="3i_0" departPos="4.10" departSpeed="0.00" departDelay="1.00" arrival="206.00" arrivalLane="4o_0" arrivalPos="492.80" arrivalSpeed="9.89" duration="138.00" routeLength="995.90" waitingTime="20.00" waitingCount="4" stopTime="0.00" timeLoss="61.69" rerouteNo="0" devices="tripinfo_SN_67" vType="car" speedFactor="0.93" vaporized=""/>
    <tripinfo id="WE_120" depart="120.00" departLane="1i_0" departPos="4.10" departSpeed="0.00" departDelay="0.00" arrival="208.00" arrivalLane="3o_0" arrivalPos="492.80" arrivalSpeed="9.70" duration="88.00" routeLength="990.53" waitingTime="0.00" waitingCount="0" stopTime="0.00" timeLoss="9.13" rerouteNo="0" devices="tripinfo_WE_120" vType="car" speedFactor="0.90" vaporized=""/>
    <tripinfo id="SN_120" depart="120.00" departLane="3i_0" departPos="4.10" departSpeed="0.00" departDelay="0.00" arrival="213.00" arrivalLane="4o_0" arrivalPos="492.80" arrivalSpeed="8.58" duration="93.00" routeLength="995.90" waitingTime="0.00" waitingCount="0" stopTime="0.00" timeLoss="11.76" rerouteNo="0" devices="tripinfo_SN_120" vType="car" speedFactor="0.88" vaporized=""/>
    <tripinfo id="WE_128" depart="130.00" departLane="1i_0" departPos="4.10" departSpeed="0.00" departDelay="2.00" arrival="214.00" arrivalLane="4o_0" arrivalPos="492.80" arrivalSpeed="10.34" duration="84.00" routeLength="995.70" waitingTime="0.00" waitingCount="0" stopTime="0.00" timeLoss="14.48" rerouteNo="0" devices="tripinfo_WE_128" vType="car" speedFactor="1.02" vaporized=""/>
    <tripinfo id="SN_123" depart="123.00" departLane="3i_0" departPos="4.10" departSpeed="0.00" departDelay="0.00" arrival="220.00" arrivalLane="2o_0" arrivalPos="492.80" arrivalSpeed="9.03" duration="97.00" routeLength="990.53" waitingTime="0.00" waitingCount="0" stopTime="0.00" timeLoss="13.74" rerouteNo="0" devices="tripinfo_SN_123" vType="car" speedFactor="0.85" vaporized=""/>
    <tripinfo id="EW_135" depart="135.00" departLane="4i_0" departPos="4.10" departSpeed="0.00" departDelay="0.00" arrival="221.00" arrivalLane="2o_0" arrivalPos="492.80" arrivalSpeed="10.92" duration="86.00" routeLength="995.70" waitingTime="0.00" waitingCount="0" stopTime="0.00" timeLoss="15.59" rerouteNo="0" devices="tripinfo_EW_135" vType="car" speedFactor="1.00" vaporized=""/>
    <tripinfo id="SN_142" depart="142.00" departLane="3i_0" departPos="4.10" departSpeed="0.00" departDelay="0.00" arrival="223.00" arrivalLane="2o_0" arrivalPos="492.80" arrivalSpeed="11.78" duration="81.00" routeLength="990.53" waitingTime="0.00" waitingCount="0" stopTime="0.00" timeLoss="19.21" rerouteNo="0" devices="tripinfo_SN_142" vType="car" speedFactor="1.14" vaporized=""/>
    <tripinfo id="EW_149" depart="152.00" departLane="4i_0" departPos="4.10" departSpeed="0.00" departDelay="3.00" arrival="224.00" arrivalLane="3o_0" arrivalPos="492.80" arrivalSpeed="11.53" duration="72.00" routeLength="995.90" waitingTime="0.00" waitingCount="0" stopTime="0.00" timeLoss="8.87" rerouteNo="0" devices="tripinfo_EW_149" vType="car" speedFactor="1.12" vaporized=""/>
    <tripinfo id="SN_126" depart="126.00" departLane="3i_0" departPos="4.10" departSpeed="0.00" departDelay="0.00" arrival="227.00" arrivalLane="1o_0" arrivalPos="492.80" arrivalSpeed="9.28" duration="101.00" routeLength="995.70" waitingTime="1.00" waitingCount="1" stopTime="0.00" timeLoss="17.88" rerouteNo="0" devices="tripinfo_SN_126" vType="car" speedFactor="0.85" vaporized=""/>
    <tripinfo id="SN_132" depart="132.00" departLane="3i_0" departPos="10.10" departSpeed="0.00" departDelay="0.00" arrival="229.00" arrivalLane="1o_0" arrivalPos="492.80" arrivalSpeed="11.03" duration="97.00" routeLength="989.70" waitingTime="0.00" waitingCount="0" stopTime="0.00" timeLoss="29.34" rerouteNo="0" devices="tripinfo_SN_132" vType="truck" speedFactor="1.05" vaporized=""/>
    <tripinfo id="NS_148" depart="149.00" departLane="2i_0" departPos="4.10" departSpeed="0.00" departDelay="1.00" arrival="230.00" arrivalLane="3o_0" arrivalPos="492.80" arrivalSpeed="11.37" duration="81.00" routeLength="995.70" waitingTime="0.00" waitingCount="0" stopTime="0.00" timeLoss="15.35" rerouteNo="0" devices="tripinfo_NS_148" vType="car" speedFactor="1.08" vaporized=""/>
    <tripinfo id="NS_142" depart="144.00" departLane="2i_0" departPos="4.10" departSpeed="0.00" departDelay="2.00" arrival="231.00" arrivalLane="4o_0" arrivalPos="492.80" arrivalSpeed="8.86" duration="87.00" routeLength="990.53" waitingTime="0.00" waitingCount="0" stopTime="0.00" timeLoss="7.96" rerouteNo="0" devices="tripinfo_NS_142" vType="car" speedFactor="0.90" vaporized=""/>
    <tripinfo id="SN_136" depart="136.00" departLane="3i_0" departPos="4.10" departSpeed="0.00" departDelay="0.00" arrival="232.00" arrivalLane="1o_0" arrivalPos="492.80" arrivalSpeed="10.80" duration="96.00" routeLength="995.70" waitingTime="0.00" waitingCount="0" stopTime="0.00" timeLoss="24.25" rerouteNo="0" devices="tripinfo_SN_136" vType="car" speedFactor="1.00" vaporized=""/>
    <tripinfo id="NS_143" depart="146.00" departLane="2i_0" departPos="4.10" departSpeed="0.00" departDelay="3.00" arrival="232.00" arrivalLane="4o_0" arrivalPos="492.80" arrivalSpeed="10.09" duration="86.00" routeLength="990.53" waitingTime="0.00" waitingCount="0" stopTime="0.00" timeLoss="17.16" rerouteNo="0" devices="tripinfo_NS_143" vType="car" speedFactor="1.02" vaporized=""/>
    <tripinfo id="SN_144" depart="147.00" departLane="3i_0" departPos="4.10" departSpeed="0.00" departDelay="3.00" arrival="234.00" arrivalLane="4o_0" arrivalPos="492.80" arrivalSpeed="9.74" duration="87.00" routeLength="995.90" waitingTime="0.00" waitingCount="0" stopTime="0.00" timeLoss="13.89" rerouteNo="0" devices="tripinfo_SN_144" vType="car" speedFactor="0.97" vaporized=""/>
    <tripinfo id="NS_152" depart="152.00" departLane="2i_0" departPos="4.10" departSpeed="0.00" departDelay="0.00" arrival="236.00" arrivalLane="1o_0" arrivalPos="492.80" arrivalSpeed="10.47" duration="84.00" routeLength="995.90" waitingTime="1.00" waitingCount="1" stopTime="0.00" timeLoss="14.17" rerouteNo="0" devices="tripinfo_NS_152" vType="car" speedFactor="1.02" vaporized=""/>
    <tripinfo id="SN_153" depart="153.00" departLane="3i_0" departPos="4.10" departSpeed="0.00" departDelay="0.00" arrival="236.00" arrivalLane="4o_0" arrivalPos="492.80" arrivalSpeed="10.20" duration="83.00" routeLength="995.90" waitingTime="0.00" waitingCount="0" stopTime="0.00" timeLoss="10.67" rerouteNo="0" devices="tripinfo_SN_153" vType="car" speedFactor="0.99" vaporized=""/>
    <tripinfo id="WE_155" depart="155.00" departLane="1i_0" departPos="10.10" departSpeed="0.00" departDelay="0.00" arrival="246.00" arrivalLane="2o_0" arrivalPos="492.80" arrivalSpeed="10.61" duration="91.00" routeLength="989.90" waitingTime="1.00" waitingCount="1" stopTime="0.00" timeLoss="17.88" rerouteNo="0" devices="tripinfo_WE_155" vType="truck" speedFactor="0.97" vaporized=""/>
    <tripinfo id="NS_155" depart="155.00" departLane="2i_0" departPos="4.10" departSpeed="0.00" departDelay="0.00" arrival="246.00" arrivalLane="4o_0" arrivalPos="492.80" arrivalSpeed="8.90" duration="91.00" routeLength="990.53" waitingTime="0.00" waitingCount="0" stopTime="0.00" timeLoss="10.73" rerouteNo="0" devices="tripinfo_NS_155" vType="car" speedFactor="0.88" vaporized=""/>
    <tripinfo id="WE_161" depart="161.00" departLane="1i_0" departPos="4.10" departSpeed="0.00" departDelay="0.00" arrival="252.00" arrivalLane="3o_0" arrivalPos="492.80" arrivalSpeed="10.04" duration="91.00" routeLength="990.53" waitingTime="0.00" waitingCount="0" stopTime="0.00" timeLoss="12.98" rerouteNo="0" devices="tripinfo_WE_161" vType="car" speedFactor="0.91" vaporized=""/>
    <tripinfo id="WE_166" depart="167.00" departLane="1i_0" departPos="4.10" departSpeed="0.00" departDelay="1.00" arrival="254.00" arrivalLane="3o_0" arrivalPos="492.80" arrivalSpeed="10.17" duration="87.00" routeLength="990.53" waitingTime="0.00" waitingCount="0" stopTime="0.00" timeLoss="17.61" rerouteNo="0" devices="tripinfo_WE_166" vType="car" speedFactor="1.02" vaporized=""/>
    <tripinfo id="WE_162" depart="164.00" departLane="1i_0" departPos="4.10" departSpeed="0.00" departDelay="2.00" arrival="255.00" arrivalLane="4o_0" arrivalPos="492.80" arrivalSpeed="9.25" duration="91.00" routeLength="995.70" waitingTime="0.00" waitingCount="0" stopTime="0.00" timeLoss="13.48" rerouteNo="0" devices="tripinfo_WE_162" vType="car" speedFactor="0.91" vaporized=""/>
    <tripinfo id="NS_171" depart="171.00" departLane="2i_0" departPos="4.10" departSpeed="0.00" departDelay="0.00" arrival="257.00" arrivalLane="4o_0" arrivalPos="492.80" arrivalSpeed="10.50" duration="86.00" routeLength="990.53" waitingTime="0.00" waitingCount="0" stopTime="0.00" timeLoss="13.08" rerouteNo="0" devices="tripinfo_NS_171" vType="car" speedFactor="0.97" vaporized=""/>
    <tripinfo id="NS_172" depart="175.00" departLane="2i_0" departPos="10.10" departSpeed="0.00" departDelay="3.00" arrival="259.00" arrivalLane="4o_0" arrivalPos="492.80" arrivalSpeed="10.84" duration="84.00" routeLength="984.53" waitingTime="0.00" waitingCount="0" stopTime="0.00" timeLoss="15.69" rerouteNo="0" devices="tripinfo_NS_172" vType="truck" speedFactor="1.03" vaporized=""/>
    <tripinfo id="NS_174" depart="179.00" departLane="2i_0" departPos="4.10" departSpeed="0.00" departDelay="5.00" arrival="264.00" arrivalLane="3o_0" arrivalPos="492.80" arrivalSpeed="10.90" duration="85.00" routeLength="995.70" waitingTime="0.00" waitingCount="0" stopTime="0.00" timeLoss="12.59" rerouteNo="0" devices="tripinfo_NS_174" vType="car" speedFactor="0.98" vaporized=""/>
    <tripinfo id="WE_178" depart="178.00" departLane="1i_0" departPos="4.10" departSpeed="0.00" departDelay="0.00" arrival="268.00" arrivalLane="2o_0" arrivalPos="492.80" arrivalSpeed="10.70" duration="90.00" routeLength="995.90" waitingTime="6.00" waitingCount="1" stopTime="0.00" timeLoss="19.14" rerouteNo="0" devices="tripinfo_WE_178" vType="car" speedFactor="1.01" vaporized=""/>
    <tripinfo id="WE_172" depart="172.00" departLane="1i_0" departPos="4.10" departSpeed="0.00" departDelay="0.00" arrival="269.00" arrivalLane="4o_0" arrivalPos="492.80" arrivalSpeed="9.34" duration="97.00" routeLength="995.70" waitingTime="6.00" waitingCount="1" stopTime="0.00" timeLoss="21.56" rerouteNo="0" devices="tripinfo_WE_172" vType="car" speedFactor="0.94" vaporized=""/>
    <tripinfo id="WE_180" depart="180.00" departLane="1i_0" departPos="4.10" departSpeed="0.00" departDelay="0.00" arrival="271.00" arrivalLane="4o_0" arrivalPos="492.80" arrivalSpeed="11.92" duration="91.00" routeLength="995.70" waitingTime="4.00" waitingCount="1" stopTime="0.00" timeLoss="25.31" rerouteNo="0" devices="tripinfo_WE_180" vType="car" speedFactor="1.09" vaporized=""/>
    <tripinfo id="SN_163" depart="163.00" departLane="3i_0" departPos="10.10" departSpeed="0.00" departDelay="0.00" arrival="278.00" arrivalLane="4o_0" arrivalPos="492.80" arrivalSpeed="11.03" duration="115.00" routeLength="989.90" waitingTime="26.00" waitingCount="1" stopTime="0.00" timeLoss="45.22" rerouteNo="0" devices="tripinfo_SN_163" vType="truck" speedFactor="1.02" vaporized=""/>