<?xml version="1.0" encoding="UTF-8"?>

<!-- generated on 2024-05-05 18:34:14 by Eclipse SUMO sumo Version 1.19.0
<configuration xmlns:xsi="http://www.w3.org/2001/XMLSchema-instance" xsi:noNamespaceSchemaLocation="http://sumo.dlr.de/xsd/sumoConfiguration.xsd">

    <input>
        <net-file value="twoone.net.xml"/>
        <route-files value="route_gen.rou.xml"/>
    </input>

    <output>
        <tripinfo-output value="tripinfo_epi496.xml"/>
    </output>

    <report>
        <no-warnings value="true"/>
    </report>

    <traci_server>
        <remote-port value="46635"/>
    </traci_server>

</configuration>
-->

<tripinfos xmlns:xsi="http://www.w3.org/2001/XMLSchema-instance" xsi:noNamespaceSchemaLocation="http://sumo.dlr.de/xsd/tripinfo_file.xsd">
    <tripinfo id="EW_0" depart="0.00" departLane="4i_0" departPos="4.10" departSpeed="0.00" departDelay="0.00" arrival="79.00" arrivalLane="1o_0" arrivalPos="492.80" arrivalSpeed="10.64" duration="79.00" routeLength="990.53" waitingTime="1.00" waitingCount="1" stopTime="0.00" timeLoss="11.93" rerouteNo="0" devices="tripinfo_EW_0" vType="car" speedFactor="1.06" vaporized=""/>
    <tripinfo id="EW_7" depart="7.00" departLane="4i_0" departPos="4.10" departSpeed="0.00" departDelay="0.00" arrival="85.00" arrivalLane="1o_0" arrivalPos="492.80" arrivalSpeed="10.02" duration="78.00" routeLength="990.53" waitingTime="0.00" waitingCount="0" stopTime="0.00" timeLoss="8.51" rerouteNo="0" devices="tripinfo_EW_7" vType="car" speedFactor="1.01" vaporized=""/>
    <tripinfo id="WE_1" depart="1.00" departLane="1i_0" departPos="4.10" departSpeed="0.00" departDelay="0.00" arrival="89.00" arrivalLane="4o_0" arrivalPos="492.80" arrivalSpeed="9.85" duration="88.00" routeLength="995.70" waitingTime="1.00" waitingCount="1" stopTime="0.00" timeLoss="12.89" rerouteNo="0" devices="tripinfo_WE_1" vType="car" speedFactor="0.94" vaporized=""/>
    <tripinfo id="WE_8" depart="8.00" departLane="1i_0" departPos="4.10" departSpeed="0.00" departDelay="0.00" arrival="91.00" arrivalLane="4o_0" arrivalPos="492.80" arrivalSpeed="11.02" duration="83.00" routeLength="995.70" waitingTime="0.00" waitingCount="0" stopTime="0.00" timeLoss="17.50" rerouteNo="0" devices="tripinfo_WE_8" vType="car" speedFactor="1.08" vaporized=""/>
    <tripinfo id="NS_10" depart="10.00" departLane="2i_0" departPos="4.10" departSpeed="0.00" departDelay="0.00" arrival="93.00" arrivalLane="4o_0" arrivalPos="492.80" arrivalSpeed="10.78" duration="83.00" routeLength="990.53" waitingTime="0.00" waitingCount="0" stopTime="0.00" timeLoss="14.46" rerouteNo="0" devices="tripinfo_NS_10" vType="car" speedFactor="1.03" vaporized=""/>
    <tripinfo id="WE_28" depart="28.00" departLane="1i_0" departPos="4.10" departSpeed="0.00" departDelay="0.00" arrival="105.00" arrivalLane="3o_0" arrivalPos="492.80" arrivalSpeed="10.84" duration="77.00" routeLength="990.53" waitingTime="0.00" waitingCount="0" stopTime="0.00" timeLoss="8.26" rerouteNo="0" devices="tripinfo_WE_28" vType="car" speedFactor="1.03" vaporized=""/>
    <tripinfo id="EW_12" depart="12.00" departLane="4i_0" departPos="4.10" departSpeed="0.00" departDelay="0.00" arrival="108.00" arrivalLane="2o_0" arrivalPos="492.80" arrivalSpeed="9.04" duration="96.00" routeLength="995.70" waitingTime="0.00" waitingCount="0" stopTime="0.00" timeLoss="10.56" rerouteNo="0" devices="tripinfo_EW_12" vType="car" speedFactor="0.83" vaporized=""/>
    <tripinfo id="NS_20" depart="20.00" departLane="2i_0" departPos="4.10" departSpeed="0.00" departDelay="0.00" arrival="108.00" arrivalLane="1o_0" arrivalPos="492.80" arrivalSpeed="9.88" duration="88.00" routeLength="995.90" waitingTime="0.00" waitingCount="0" stopTime="0.00" timeLoss="12.81" rerouteNo="0" devices="tripinfo_NS_20" vType="car" speedFactor="0.94" vaporized=""/>
    <tripinfo id="NS_35" depart="35.00" departLane="2i_0" departPos="4.10" departSpeed="0.00" departDelay="0.00" arrival="109.00" arrivalLane="3o_0" arrivalPos="492.80" arrivalSpeed="11.47" duration="74.00" routeLength="995.70" waitingTime="0.00" waitingCount="0" stopTime="0.00" timeLoss="10.41" rerouteNo="0" devices="tripinfo_NS_35" vType="car" speedFactor="1.12" vaporized=""/>
    <tripinfo id="EW_13" depart="15.00" departLane="4i_0" departPos="4.10" departSpeed="0.00" departDelay="2.00" arrival="110.00" arrivalLane="2o_0" arrivalPos="492.80" arrivalSpeed="10.45" duration="95.00" routeLength="995.70" waitingTime="0.00" waitingCount="0" stopTime="0.00" timeLoss="26.80" rerouteNo="0" devices="tripinfo_EW_13" vType="car" speedFactor="1.05" vaporized=""/>
    <tripinfo id="WE_17" depart="17.00" departLane="1i_0" departPos="4.10" departSpeed="0.00" departDelay="0.00" arrival="112.00" arrivalLane="2o_0" arrivalPos="492.80" arrivalSpeed="9.25" duration="95.00" routeLength="995.90" waitingTime="2.00" waitingCount="1" stopTime="0.00" timeLoss="14.75" rerouteNo="0" devices="tripinfo_WE_17" vType="car" speedFactor="0.89" vaporized=""/>
    <tripinfo id="NS_37" depart="38.00" departLane="2i_0" departPos="4.10" departSpeed="0.00" departDelay="1.00" arrival="119.00" arrivalLane="3o_0" arrivalPos="492.80" arrivalSpeed="10.19" duration="81.00" routeLength="995.70" waitingTime="0.00" waitingCount="0" stopTime="0.00" timeLoss="9.76" rerouteNo="0" devices="tripinfo_NS_37" vType="car" speedFactor="0.99" vaporized=""/>
    <tripinfo id="WE_42" depart="42.00" departLane="1i_0" departPos="4.10" departSpeed="0.00" departDelay="0.00" arrival="127.00" arrivalLane="3o_0" arrivalPos="492.80" arrivalSpeed="9.75" duration="85.00" routeLength="990.53" waitingTime="0.00" waitingCount="0" stopTime="0.00" timeLoss="8.41" rerouteNo="0" devices="tripinfo_WE_42" vType="car" speedFactor="0.93" vaporized=""/>
    <tripinfo id="WE_47" depart="47.00" departLane="1i_0" departPos="4.10" departSpeed="0.00" departDelay="0.00" arrival="127.00" arrivalLane="4o_0" arrivalPos="492.80" arrivalSpeed="10.69" duration="80.00" routeLength="995.70" waitingTime="0.00" waitingCount="0" stopTime="0.00" timeLoss="10.73" rerouteNo="0" devices="tripinfo_WE_47" vType="car" speedFactor="1.02" vaporized=""/>
    <tripinfo id="SN_26" depart="26.00" departLane="3i_0" departPos="4.10" departSpeed="0.00" departDelay="0.00" arrival="129.00" arrivalLane="4o_0" arrivalPos="492.80" arrivalSpeed="11.73" duration="103.00" routeLength="995.90" waitingTime="15.00" waitingCount="1" stopTime="0.00" timeLoss="38.07" rerouteNo="0" devices="tripinfo_SN_26" vType="car" speedFactor="1.09" vaporized=""/>
    <tripinfo id="SN_24" depart="24.00" departLane="3i_0" departPos="4.10" departSpeed="0.00" departDelay="0.00" arrival="134.00" arrivalLane="1o_0" arrivalPos="492.80" arrivalSpeed="8.79" duration="110.00" routeLength="995.70" waitingTime="16.00" waitingCount="1" stopTime="0.00" timeLoss="27.34" rerouteNo="0" devices="tripinfo_SN_24" vType="car" speedFactor="0.86" vaporized=""/>
    <tripinfo id="NS_50" depart="50.00" departLane="2i_0" departPos="4.10" departSpeed="0.00" departDelay="0.00" arrival="135.00" arrivalLane="3o_0" arrivalPos="492.80" arrivalSpeed="10.67" duration="85.00" routeLength="995.70" waitingTime="1.00" waitingCount="1" stopTime="0.00" timeLoss="12.10" rerouteNo="0" devices="tripinfo_NS_50" vType="car" speedFactor="0.97" vaporized=""/>
    <tripinfo id="EW_44" depart="44.00" departLane="4i_0" departPos="4.10" departSpeed="0.00" departDelay="0.00" arrival="136.00" arrivalLane="1o_0" arrivalPos="492.80" arrivalSpeed="9.38" duration="92.00" routeLength="990.53" waitingTime="3.00" waitingCount="1" stopTime="0.00" timeLoss="16.70" rerouteNo="0" devices="tripinfo_EW_44" vType="car" speedFactor="0.94" vaporized=""/>
    <tripinfo id="EW_48" depart="48.00" departLane="4i_0" departPos="4.10" departSpeed="0.00" departDelay="0.00" arrival="138.00" arrivalLane="1o_0" arrivalPos="492.80" arrivalSpeed="11.15" duration="90.00" routeLength="990.53" waitingTime="0.00" waitingCount="0" stopTime="0.00" timeLoss="19.46" rerouteNo="0" devices="tripinfo_EW_48" vType="car" speedFactor="1.01" vaporized=""/>
    <tripinfo id="NS_68" depart="68.00" departLane="2i_0" departPos="4.10" departSpeed="0.00" departDelay="0.00" arrival="141.00" arrivalLane="1o_0" arrivalPos="492.80" arrivalSpeed="12.60" duration="73.00" routeLength="995.90" waitingTime="0.00" waitingCount="0" stopTime="0.00" timeLoss="12.72" rerouteNo="0" devices="tripinfo_NS_68" vType="car" speedFactor="1.18" vaporized=""/>
    <tripinfo id="WE_52" depart="52.00" departLane="1i_0" departPos="4.10" departSpeed="0.00" departDelay="0.00" arrival="148.00" arrivalLane="4o_0" arrivalPos="492.80" arrivalSpeed="8.99" duration="96.00" routeLength="995.70" waitingTime="0.00" waitingCount="0" stopTime="0.00" timeLoss="10.15" rerouteNo="0" devices="tripinfo_WE_52" vType="car" speedFactor="0.83" vaporized=""/>
    <tripinfo id="NS_65" depart="65.00" departLane="2i_0" departPos="4.10" departSpeed="0.00" departDelay="0.00" arrival="151.00" arrivalLane="3o_0" arrivalPos="492.80" arrivalSpeed="10.30" duration="86.00" routeLength="995.70" waitingTime="0.00" waitingCount="0" stopTime="0.00" timeLoss="9.52" rerouteNo="0" devices="tripinfo_NS_65" vType="car" speedFactor="0.93" vaporized=""/>
    <tripinfo id="NS_78" depart="78.00" departLane="2i_0" departPos="4.10" departSpeed="0.00" departDelay="0.00" arrival="158.00" arrivalLane="3o_0" arrivalPos="492.80" arrivalSpeed="10.71" duration="80.00" routeLength="995.70" waitingTime="0.00" waitingCount="0" stopTime="0.00" timeLoss="8.98" rerouteNo="0" devices="tripinfo_NS_78" vType="car" speedFactor="1.01" vaporized=""/>
    <tripinfo id="NS_84" depart="84.00" departLane="2i_0" departPos="4.10" departSpeed="0.00" departDelay="0.00" arrival="159.00" arrivalLane="3o_0" arrivalPos="492.80" arrivalSpeed="11.87" duration="75.00" routeLength="995.70" waitingTime="0.00" waitingCount="0" stopTime="0.00" timeLoss="15.05" rerouteNo="0" devices="tripinfo_NS_84" vType="car" speedFactor="1.18" vaporized=""/>
    <tripinfo id="NS_93" depart="93.00" departLane="2i_0" departPos="4.10" departSpeed="0.00" departDelay="0.00" arrival="165.00" arrivalLane="4o_0" arrivalPos="492.80" arrivalSpeed="11.33" duration="72.00" routeLength="990.53" waitingTime="0.00" waitingCount="0" stopTime="0.00" timeLoss="7.38" rerouteNo="0" devices="tripinfo_NS_93" vType="car" speedFactor="1.09" vaporized=""/>
    <tripinfo id="NS_89" depart="89.00" departLane="2i_0" departPos="4.10" departSpeed="0.00" departDelay="0.00" arrival="166.00" arrivalLane="1o_0" arrivalPos="492.80" arrivalSpeed="10.66" duration="77.00" routeLength="995.90" waitingTime="0.00" waitingCount="0" stopTime="0.00" timeLoss="8.33" rerouteNo="0" devices="tripinfo_NS_89" vType="car" speedFactor="1.03" vaporized=""/>
    <tripinfo id="WE_76" depart="76.00" departLane="1i_0" departPos="4.10" departSpeed="0.00" departDelay="0.00" arrival="171.00" arrivalLane="2o_0" arrivalPos="492.80" arrivalSpeed="12.76" duration="95.00" routeLength="995.90" waitingTime="16.00" waitingCount="1" stopTime="0.00" timeLoss="33.06" rerouteNo="0" devices="tripinfo_WE_76" vType="car" speedFactor="1.15" vaporized=""/>
    <tripinfo id="WE_88" depart="88.00" departLane="1i_0" departPos="4.10" departSpeed="0.00" departDelay="0.00" arrival="175.00" arrivalLane="2o_0" arrivalPos="492.80" arrivalSpeed="11.39" duration="87.00" routeLength="995.90" waitingTime="4.00" waitingCount="1" stopTime="0.00" timeLoss="22.05" rerouteNo="0" devices="tripinfo_WE_88" vType="car" speedFactor="1.10" vaporized=""/>
    <tripinfo id="WE_60" depart="60.00" departLane="1i_0" departPos="10.10" departSpeed="0.00" departDelay="0.00" arrival="176.00" arrivalLane="4o_0" arrivalPos="492.80" arrivalSpeed="10.06" duration="116.00" routeLength="989.70" waitingTime="21.00" waitingCount="1" stopTime="0.00" timeLoss="42.67" rerouteNo="0" devices="tripinfo_WE_60" vType="truck" speedFactor="0.96" vaporized=""/>
    <tripinfo id="EW_51" depart="52.00" departLane="4i_0" departPos="10.10" departSpeed="0.00" departDelay="1.00" arrival="181.00" arrivalLane="1o_0" arrivalPos="492.80" arrivalSpeed="10.47" duration="129.00" routeLength="984.53" waitingTime="34.00" waitingCount="2" stopTime="0.00" timeLoss="54.54" rerouteNo="0" devices="tripinfo_EW_51" vType="truck" speedFactor="0.94" vaporized=""/>
    <tripinfo id="SN_28" depart="30.00" departLane="3i_0" departPos="10.10" departSpeed="0.00" departDelay="2.00" arrival="183.00" arrivalLane="1o_0" arrivalPos="492.80" arrivalSpeed="11.04" duration="153.00" routeLength="989.70" waitingTime="51.00" waitingCount="4" stopTime="0.00" timeLoss="84.26" rerouteNo="0" devices="tripinfo_SN_28" vType="truck" speedFactor="1.02" vaporized=""/>
    <tripinfo id="WE_89" depart="90.00" departLane="1i_0" departPos="4.10" departSpeed="0.00" departDelay="1.00" arrival="186.00" arrivalLane="3o_0" arrivalPos="492.80" arrivalSpeed="9.71" duration="96.00" routeLength="990.53" waitingTime="0.00" waitingCount="0" stopTime="0.00" timeLoss="17.61" rerouteNo="0" devices="tripinfo_WE_89" vType="car" speedFactor="0.90" vaporized=""/>
    <tripinfo id="NS_98" depart="98.00" departLane="2i_0" departPos="4.10" departSpeed="0.00" departDelay="0.00" arrival="186.00" arrivalLane="1o_0" arrivalPos="492.80" arrivalSpeed="11.03" duration="88.00" routeLength="995.90" waitingTime="5.00" waitingCount="1" stopTime="0.00" timeLoss="20.05" rerouteNo="0" devices="tripinfo_NS_98" vType="car" speedFactor="1.04" vaporized=""/>
    <tripinfo id="WE_105" depart="105.00" departLane="1i_0" departPos="4.10" departSpeed="0.00" departDelay="0.00" arrival="188.00" arrivalLane="3o_0" arrivalPos="492.80" arrivalSpeed="10.35" duration="83.00" routeLength="990.53" waitingTime="0.00" waitingCount="0" stopTime="0.00" timeLoss="15.12" rerouteNo="0" devices="tripinfo_WE_105" vType="car" speedFactor="1.04" vaporized=""/>
    <tripinfo id="WE_107" depart="108.00" departLane="1i_0" departPos="4.10" departSpeed="0.00" departDelay="1.00" arrival="190.00" arrivalLane="3o_0" arrivalPos="492.80" arrivalSpeed="10.53" duration="82.00" routeLength="990.53" waitingTime="0.00" waitingCount="0" stopTime="0.00" timeLoss="11.01" rerouteNo="0" devices="tripinfo_WE_107" vType="car" speedFactor="1.00" vaporized=""/>
    <tripinfo id="SN_46" depart="49.00" departLane="3i_0" departPos="4.10" departSpeed="0.00" departDelay="3.00" arrival="191.00" arrivalLane="2o_0" arrivalPos="492.80" arrivalSpeed="12.56" duration="142.00" routeLength="990.53" waitingTime="37.00" waitingCount="2" stopTime="0.00" timeLoss="81.17" rerouteNo="0" devices="tripinfo_SN_46" vType="car" speedFactor="1.16" vaporized=""/>
    <tripinfo id="SN_43" depart="43.00" departLane="3i_0" departPos="4.10" departSpeed="0.00" departDelay="0.00" arrival="197.00" arrivalLane="4o_0" arrivalPos="492.80" arrivalSpeed="8.73" duration="154.00" routeLength="995.90" waitingTime="42.00" waitingCount="4" stopTime="0.00" timeLoss="73.12" rerouteNo="0" devices="tripinfo_SN_43" vType="car" speedFactor="0.88" vaporized=""/>
    <tripinfo id="EW_54" depart="56.00" departLane="4i_0" departPos="4.10" departSpeed="0.00" departDelay="2.00" arrival="198.00" arrivalLane="1o_0" arrivalPos="492.80" arrivalSpeed="8.84" duration="142.00" routeLength="990.53" waitingTime="37.00" waitingCount="3" stopTime="0.00" timeLoss="61.56" rerouteNo="0" devices="tripinfo_EW_54" vType="car" speedFactor="0.87" vaporized=""/>
    <tripinfo id="NS_121" depart="121.00" departLane="2i_0" departPos="4.10" departSpeed="0.00" departDelay="0.00" arrival="199.00" arrivalLane="4o_0" arrivalPos="492.80" arrivalSpeed="12.80" duration="78.00" routeLength="990.53" waitingTime="0.00" waitingCount="0" stopTime="0.00" timeLoss="16.97" rerouteNo="0" devices="tripinfo_NS_121" vType="car" speedFactor="1.17" vaporized=""/>
    <tripinfo id="SN_44" depart="46.00" departLane="3i_0" departPos="4.10" departSpeed="0.00" departDelay="2.00" arrival="200.00" arrivalLane="1o_0" arrivalPos="492.80" arrivalSpeed="10.17" duration="154.00" routeLength="995.70" waitingTime="39.00" waitingCount="3" stopTime="0.00" timeLoss="78.42" rerouteNo="0" devices="tripinfo_SN_44" vType="car" speedFactor="0.94" vaporized=""/>
    <tripinfo id="WE_126" depart="126.00" departLane="1i_0" departPos="4.10" departSpeed="0.00" departDelay="0.00" arrival="200.00" arrivalLane="2o_0" arrivalPos="492.80" arrivalSpeed="12.07" duration="74.00" routeLength="995.90" waitingTime="0.00" waitingCount="0" stopTime="0.00" timeLoss="9.03" rerouteNo="0" devices="tripinfo_WE_126" vType="car" speedFactor="1.10" vaporized=""/>
    <tripinfo id="NS_109" depart="110.00" departLane="2i_0" departPos="4.10" departSpeed="0.00" departDelay="1.00" arrival="202.00" arrivalLane="1o_0" arrivalPos="492.80" arrivalSpeed="9.43" duration="92.00" routeLength="995.90" waitingTime="0.00" waitingCount="0" stopTime="0.00" timeLoss="11.29" rerouteNo="0" devices="tripinfo_NS_109" vType="car" speedFactor="0.88" vaporized=""/>
    <tripinfo id="EW_65" depart="65.00" departLane="4i_0" departPos="10.10" departSpeed="0.00" departDelay="0.00" arrival="205.00" arrivalLane="1o_0" arrivalPos="492.80" arrivalSpeed="11.65" duration="140.00" routeLength="984.53" waitingTime="30.00" waitingCount="4" stopTime="0.00" timeLoss="72.73" rerouteNo="0" devices="tripinfo_EW_65" vType="truck" speedFactor="1.07" vaporized=""/>
    <tripinfo id="EW_80" depart="80.00" departLane="4i_0" departPos="4.10" departSpeed="0.00" departDelay="0.00" arrival="207.00" arrivalLane="1o_0" arrivalPos="492.80" arrivalSpeed="12.62" duration="127.00" routeLength="990.53" waitingTime="30.00" waitingCount="5" stopTime="0.00" timeLoss="66.36" rerouteNo="0" devices="tripinfo_EW_80" vType="car" speedFactor="1.17" vaporized=""/>
    <tripinfo id="NS_112" depart="112.00" departLane="2i_0" departPos="4.10" departSpeed="0.00" departDelay="0.00" arrival="208.00" arrivalLane="3o_0" arrivalPos="492.80" arrivalSpeed="8.46" duration="96.00" routeLength="995.70" waitingTime="0.00" waitingCount="0" stopTime="0.00" timeLoss="12.36" rerouteNo="0" devices="tripinfo_NS_112" vType="car" speedFactor="0.85" vaporized=""/>
    <tripinfo id="WE_127" depart="129.00" departLane="1i_0" departPos="4.10" departSpeed="0.00" departDelay="2.00" arrival="210.00" arrivalLane="3o_0" arrivalPos="492.80" arrivalSpeed="11.06" duration="81.00" routeLength="990.53" waitingTime="0.00" waitingCount="0" stopTime="0.00" timeLoss="9.81" rerouteNo="0" devices="tripinfo_WE_127" vType="car" speedFactor="1.00" vaporized=""/>
    <tripinfo id="WE_137" depart="138.00" departLane="1i_0" departPos="4.10" departSpeed="0.00" departDelay="1.00" arrival="211.00" arrivalLane="3o_0" arrivalPos="492.80" arrivalSpeed="11.67" duration="73.00" routeLength="990.53" waitingTime="0.00" waitingCount="0" stopTime="0.00" timeLoss="11.41" rerouteNo="0" devices="tripinfo_WE_137" vType="car" speedFactor="1.14" vaporized=""/>
    <tripinfo id="WE_115" depart="115.00" departLane="1i_0" departPos="4.10" departSpeed="0.00" departDelay="0.00" arrival="212.00" arrivalLane="4o_0" arrivalPos="492.80" arrivalSpeed="9.12" duration="97.00" routeLength="995.70" waitingTime="0.00" waitingCount="0" stopTime="0.00" timeLoss="14.26" rerouteNo="0" devices="tripinfo_WE_115" vType="car" speedFactor="0.85" vaporized=""/>
    <tripinfo id="SN_64" depart="64.00" departLane="3i_0" departPos="4.10" departSpeed="0.00" departDelay="0.00" arrival="215.00" arrivalLane="2o_0" arrivalPos="492.80" arrivalSpeed="9.81" duration="151.00" routeLength="990.53" waitingTime="41.00" waitingCount="3" stopTime="0.00" timeLoss="76.60" rerouteNo="0" devices="tripinfo_SN_64" vType="car" speedFactor="0.95" vaporized=""/>
    <tripinfo id="NS_129" depart="129.00" departLane="2i_0" departPos="10.10" departSpeed="0.00" departDelay="0.00" arrival="216.00" arrivalLane="4o_0" arrivalPos="492.80" arrivalSpeed="10.34" duration="87.00" routeLength="984.53" waitingTime="0.00" waitingCount="0" stopTime="0.00" timeLoss="12.92" rerouteNo="0" devices="tripinfo_NS_129" vType="truck" speedFactor="0.95" vaporized=""/>
    <tripinfo id="NS_138" depart="138.00" departLane="2i_0" departPos="4.10" departSpeed="0.00" departDelay="0.00" arrival="216.00" arrivalLane="3o_0" arrivalPos="492.80" arrivalSpeed="11.26" duration="78.00" routeLength="995.70" waitingTime="0.00" waitingCount="0" stopTime="0.00" timeLoss="11.93" rerouteNo="0" devices="tripinfo_NS_138" vType="car" speedFactor="1.08" vaporized=""/>
    <tripinfo id="SN_81" depart="81.00" departLane="3i_0" departPos="4.10" departSpeed="0.00" departDelay="0.00" arrival="218.00" arrivalLane="2o_0" arrivalPos="492.80" arrivalSpeed="10.36" duration="137.00" routeLength="990.53" waitingTime="28.00" waitingCount="4" stopTime="0.00" timeLoss="66.40" rerouteNo="0" devices="tripinfo_SN_81" vType="car" speedFactor="0.99" vaporized=""/>
    <tripinfo id="SN_83" depart="84.00" departLane="3i_0" departPos="4.10" departSpeed="0.00" departDelay="1.00" arrival="220.00" arrivalLane="2o_0" arrivalPos="492.80" arrivalSpeed="10.04" duration="136.00" routeLength="990.53" waitingTime="23.00" waitingCount="3" stopTime="0.00" timeLoss="67.07" rerouteNo="0" devices="tripinfo_SN_83" vType="car" speedFactor="1.02" vaporized=""/>
    <tripinfo id="EW_84" depart="84.00" departLane="4i_0" departPos="4.10" departSpeed="0.00" departDelay="0.00" arrival="224.00" arrivalLane="2o_0" arrivalPos="492.80" arrivalSpeed="9.53" duration="140.00" routeLength="995.70" waitingTime="27.00" waitingCount="6" stopTime="0.00" timeLoss="67.09" rerouteNo="0" devices="tripinfo_EW_84" vType="car" speedFactor="0.97" vaporized=""/>
    <tripinfo id="SN_91" depart="91.00" departLane="3i_0" departPos="4.10" departSpeed="0.00" departDelay="0.00" arrival="226.00" arrivalLane="1o_0" arrivalPos="492.80" arrivalSpeed="10.14" duration="135.00" routeLength="995.70" waitingTime="16.00" waitingCount="2" stopTime="0.00" timeLoss="60.61" rerouteNo="0" devices="tripinfo_SN_91" vType="car" speedFactor="0.96" vaporized=""/>
    <tripinfo id="WE_144" depart="144.00" departLane="1i_0" departPos="4.10" departSpeed="0.00" departDelay="0.00" arrival="227.00" arrivalLane="3o_0" arrivalPos="492.80" arrivalSpeed="10.32" duration="83.00" routeLength="990.53" waitingTime="1.00" waitingCount="1" stopTime="0.00" timeLoss="11.31" rerouteNo="0" devices="tripinfo_WE_144" vType="car" speedFactor="0.99" vaporized=""/>
    <tripinfo id="SN_105" depart="105.00" departLane="3i_0" departPos="4.10" departSpeed="0.00" departDelay="0.00" arrival="228.00" arrivalLane="1o_0" arrivalPos="492.80" arrivalSpeed="11.36" duration="123.00" routeLength="995.70" waitingTime="8.00" waitingCount="2" stopTime="0.00" timeLoss="57.34" rerouteNo="0" devices="tripinfo_SN_105" vType="car" speedFactor="1.09" vaporized=""/>
    <tripinfo id="SN_128" depart="128.00" departLane="3i_0" departPos="4.10" departSpeed="0.00" departDelay="0.00" arrival="230.00" arrivalLane="1o_0" arrivalPos="492.80" arrivalSpeed="10.66" duration="102.00" routeLength="995.70" waitingTime="7.00" waitingCount="1" stopTime="0.00" timeLoss="30.13" rerouteNo="0" devices="tripinfo_SN_128" vType="car" speedFactor="1.00" vaporized=""/>
    <tripinfo id="WE_146" depart="147.00" departLane="1i_0" departPos="4.10" departSpeed="0.00" departDelay="1.00" arrival="232.00" arrivalLane="2o_0" arrivalPos="492.80" arrivalSpeed="9.74" duration="85.00" routeLength="995.90" waitingTime="0.00" waitingCount="0" stopTime="0.00" timeLoss="9.44" rerouteNo="0" devices="tripinfo_WE_146" vType="car" speedFactor="0.94" vaporized=""/>
    <tripinfo id="SN_140" depart="140.00" departLane="3i_0" departPos="4.10" departSpeed="0.00" departDelay="0.00" arrival="234.00" arrivalLane="2o_0" arrivalPos="492.80" arrivalSpeed="11.64" duration="94.00" routeLength="990.53" waitingTime="0.00" waitingCount="0" stopTime="0.00" timeLoss="30.69" rerouteNo="0" devices="tripinfo_SN_140" vType="car" speedFactor="1.12" vaporized=""/>
    <tripinfo id="EW_109" depart="109.00" departLane="4i_0" departPos="4.10" departSpeed="0.00" departDelay="0.00" arrival="236.00" arrivalLane="1o_0" arrivalPos="492.80" arrivalSpeed="9.10" duration="127.00" routeLength="990.53" waitingTime="12.00" waitingCount="6" stopTime="0.00" timeLoss="48.86" rerouteNo="0" devices="tripinfo_EW_109" vType="car" speedFactor="0.90" vaporized=""/>
    <tripinfo id="EW_123" depart="123.00" departLane="4i_0" departPos="4.10" departSpeed="0.00" departDelay="0.00" arrival="238.00" arrivalLane="2o_0" arrivalPos="492.80" arrivalSpeed="10.38" duration="115.00" routeLength="995.70" waitingTime="9.00" waitingCount="3" stopTime="0.00" timeLoss="45.56" rerouteNo="0" devices="tripinfo_EW_123" vType="car" speedFactor="1.02" vaporized=""/>
    <tripinfo id="SN_137" depart="137.00" departLane="3i_0" departPos="4.10" departSpeed="0.00" departDelay="0.00" arrival="238.00" arrivalLane="1o_0" arrivalPos="492.80" arrivalSpeed="10.22" duration="101.00" routeLength="995.70" waitingTime="1.00" waitingCount="1" stopTime="0.00" timeLoss="27.77" rerouteNo="0" devices="tripinfo_SN_137" vType="car" speedFactor="0.97" vaporized=""/>
    <tripinfo id="NS_150" depart="150.00" departLane="2i_0" departPos="4.10" departSpeed="0.00" departDelay="0.00" arrival="239.00" arrivalLane="4o_0" arrivalPos="492.80" arrivalSpeed="8.73" duration="89.00" routeLength="990.53" waitingTime="0.00" waitingCount="0" stopTime="0.00" timeLoss="9.35" rerouteNo="0" devices="tripinfo_NS_150" vType="car" speedFactor="0.88" vaporized=""/>
    <tripinfo id="WE_164" depart="164.00" departLane="1i_0" departPos="4.10" departSpeed="0.00" departDelay="0.00" arrival="245.00" arrivalLane="3o_0" arrivalPos="492.80" arrivalSpeed="9.77" duration="81.00" routeLength="990.53" waitingTime="0.00" waitingCount="0" stopTime="0.00" timeLoss="8.15" rerouteNo="0" devices="tripinfo_WE_164" vType="car" speedFactor="0.97" vaporized=""/>
    <tripinfo id="WE_153" depart="153.00" departLane="1i_0" departPos="4.10" departSpeed="0.00" departDelay="0.00" arrival="246.00" arrivalLane="2o_0" arrivalPos="492.80" arrivalSpeed="9.92" duration="93.00" routeLength="995.90" waitingTime="1.00" waitingCount="1" stopTime="0.00" timeLoss="15.41" rerouteNo="0" devices="tripinfo_WE_153" vType="car" speedFactor="0.91" vaporized=""/>
    <tripinfo id="SN_141" depart="143.00" departLane="3i_0" departPos="4.10" departSpeed="0.00" departDelay="2.00" arrival="248.00" arrivalLane="2o_0" arrivalPos="492.80" arrivalSpeed="10.64" duration="105.00" routeLength="990.53" waitingTime="7.00" waitingCount="2" stopTime="0.00" timeLoss="35.30" rerouteNo="0" devices="tripinfo_SN_141" vType="car" speedFactor="1.02" vaporized=""/>
    <tripinfo id="EW_137" depart="137.00" departLane="4i_0" departPos="4.10" departSpeed="0.00" departDelay="0.00" arrival="251.00" arrivalLane="2o_0" arrivalPos="492.80" arrivalSpeed="11.15" duration="114.00" routeLength="995.70" waitingTime="10.00" waitingCount="3" stopTime="0.00" timeLoss="44.77" rerouteNo="0" devices="tripinfo_EW_137" vType="car" speedFactor="1.02" vaporized=""/>
    <tripinfo id="NS_165" depart="165.00" departLane="2i_0" departPos="4.10" departSpeed="0.00" departDelay="0.00" arrival="251.00" arrivalLane="1o_0" arrivalPos="492.80" arrivalSpeed="9.71" duration="86.00" routeLength="995.90" waitingTime="1.00" waitingCount="1" stopTime="0.00" timeLoss="10.12" rerouteNo="0" devices="tripinfo_NS_165" vType="car" speedFactor="0.94" vaporized=""/>
    <tripinfo id="WE_167" depart="167.00" departLane="1i_0" departPos="4.10" departSpeed="0.00" departDelay="0.00" arrival="253.00" arrivalLane="2o_0" arrivalPos="492.80" arrivalSpeed="10.85" duration="86.00" routeLength="995.90" waitingTime="4.00" waitingCount="1" stopTime="0.00" timeLoss="18.64" rerouteNo="0" devices="tripinfo_WE_167" vType="car" speedFactor="1.06" vaporized=""/>
    <tripinfo id="NS_175" depart="175.00" departLane="2i_0" departPos="4.10" departSpeed="0.00" departDelay="0.00" arrival="253.00" arrivalLane="1o_0" arrivalPos="492.80" arrivalSpeed="11.10" duration="78.00" routeLength="995.90" waitingTime="0.00" waitingCount="0" stopTime="0.00" timeLoss="8.78" rerouteNo="0" devices="tripinfo_NS_175" vType="car" speedFactor="1.03" vaporized=""/>
    <tripinfo id="SN_151" depart="151.00" departLane="3i_0" departPos="10.10" departSpeed="0.00" departDelay="0.00" arrival="265.00" arrivalLane="1o_0" arrivalPos="492.80" arrivalSpeed="10.41" duration="114.00" routeLength="989.70" waitingTime="14.00" waitingCount="2" stopTime="0.00" timeLoss="40.17" rerouteNo="0" devices="tripinfo_SN_151" vType="truck" speedFactor="0.95" vaporized=""/>
    <tripinfo id="EW_157" depart="157.00" departLane="4i_0" departPos="10.10" departSpeed="0.00" departDelay="0.00" arrival="266.00" arrivalLane="2o_0" arrivalPos="492.80" arrivalSpeed="11.28" duration="109.00" routeLength="989.70" waitingTime="8.00" waitingCount="3" stopTime="0.00" timeLoss="39.23" rerouteNo="0" devices="tripinfo_EW_157" vType="truck" speedFactor="1.02" vaporized=""/>
    <tripinfo id="SN_163" depart="163.00" departLane="3i_0" departPos="10.10" departSpeed="0.00" departDelay="0.00" arrival="268.00" arrivalLane="1o_0" arrivalPos="492.80" arrivalSpeed="11.06" duration="105.00" routeLength="989.70" waitingTime="7.00" waitingCount="1" stopTime="0.00" timeLoss="34.64" rerouteNo="0" devices="tripinfo_SN_163" vType="truck" speedFactor="1.01" vaporized=""/>
    <tripinfo id="SN_172" depart="172.00" departLane="3i_0" departPos="4.10" departSpeed="0.00" departDelay="0.00" arrival="271.00" arrivalLane="1o_0" arrivalPos="492.80" arrivalSpeed="10.42" duration="99.00" routeLength="995.70" waitingTime="6.00" waitingCount="1" stopTime="0.00" timeLoss="27.32" rerouteNo="0" devices="tripinfo_SN_172" vType="car" speedFactor="0.98" vaporized=""/>
    <tripinfo id="NS_176" depart="179.00" departLane="2i_0" departPos="10.10" departSpeed="0.00" departDelay="3.00" arrival="277.00" arrivalLane="3o_0" arrivalPos="492.80" arrivalSpeed="10.93" duration="98.00" routeLength="989.70" waitingTime="4.00" waitingCount="1" stopTime="0.00" timeLoss="26.90" rerouteNo="0" devices="tripinfo_NS_176" vType="truck" speedFactor="0.99" vaporized=""/>