<?xml version="1.0" encoding="UTF-8"?>

<!-- generated on 2024-05-05 15:42:27 by Eclipse SUMO sumo Version 1.19.0
<configuration xmlns:xsi="http://www.w3.org/2001/XMLSchema-instance" xsi:noNamespaceSchemaLocation="http://sumo.dlr.de/xsd/sumoConfiguration.xsd">

    <input>
        <net-file value="twoone.net.xml"/>
        <route-files value="route_gen.rou.xml"/>
    </input>

    <output>
        <tripinfo-output value="tripinfo_epi15.xml"/>
    </output>

    <report>
        <no-warnings value="true"/>
    </report>

    <traci_server>
        <remote-port value="60213"/>
    </traci_server>

</configuration>
-->

<tripinfos xmlns:xsi="http://www.w3.org/2001/XMLSchema-instance" xsi:noNamespaceSchemaLocation="http://sumo.dlr.de/xsd/tripinfo_file.xsd">
    <tripinfo id="SN_2" depart="2.00" departLane="3i_0" departPos="4.10" departSpeed="0.00" departDelay="0.00" arrival="80.00" arrivalLane="4o_0" arrivalPos="492.80" arrivalSpeed="11.59" duration="78.00" routeLength="995.90" waitingTime="1.00" waitingCount="1" stopTime="0.00" timeLoss="11.16" rerouteNo="0" devices="tripinfo_SN_2" vType="car" speedFactor="1.06" vaporized=""/>
    <tripinfo id="EW_6" depart="6.00" departLane="4i_0" departPos="4.10" departSpeed="0.00" departDelay="0.00" arrival="90.00" arrivalLane="2o_0" arrivalPos="492.80" arrivalSpeed="10.81" duration="84.00" routeLength="995.70" waitingTime="1.00" waitingCount="1" stopTime="0.00" timeLoss="13.33" rerouteNo="0" devices="tripinfo_EW_6" vType="car" speedFactor="1.01" vaporized=""/>
    <tripinfo id="NS_10" depart="10.00" departLane="2i_0" departPos="4.10" departSpeed="0.00" departDelay="0.00" arrival="90.00" arrivalLane="4o_0" arrivalPos="492.80" arrivalSpeed="10.65" duration="80.00" routeLength="990.53" waitingTime="2.00" waitingCount="1" stopTime="0.00" timeLoss="11.36" rerouteNo="0" devices="tripinfo_NS_10" vType="car" speedFactor="1.03" vaporized=""/>
    <tripinfo id="NS_13" depart="13.00" departLane="2i_0" departPos="4.10" departSpeed="0.00" departDelay="0.00" arrival="92.00" arrivalLane="4o_0" arrivalPos="492.80" arrivalSpeed="11.03" duration="79.00" routeLength="990.53" waitingTime="0.00" waitingCount="0" stopTime="0.00" timeLoss="11.38" rerouteNo="0" devices="tripinfo_NS_13" vType="car" speedFactor="1.05" vaporized=""/>
    <tripinfo id="SN_3" depart="4.00" departLane="3i_0" departPos="4.10" departSpeed="0.00" departDelay="1.00" arrival="95.00" arrivalLane="1o_0" arrivalPos="492.80" arrivalSpeed="9.15" duration="91.00" routeLength="995.70" waitingTime="1.00" waitingCount="1" stopTime="0.00" timeLoss="15.43" rerouteNo="0" devices="tripinfo_SN_3" vType="car" speedFactor="0.94" vaporized=""/>
    <tripinfo id="SN_8" depart="8.00" departLane="3i_0" departPos="4.10" departSpeed="0.00" departDelay="0.00" arrival="97.00" arrivalLane="1o_0" arrivalPos="492.80" arrivalSpeed="11.33" duration="89.00" routeLength="995.70" waitingTime="1.00" waitingCount="1" stopTime="0.00" timeLoss="23.14" rerouteNo="0" devices="tripinfo_SN_8" vType="car" speedFactor="1.08" vaporized=""/>
    <tripinfo id="EW_29" depart="29.00" departLane="4i_0" departPos="4.10" departSpeed="0.00" departDelay="0.00" arrival="106.00" arrivalLane="1o_0" arrivalPos="492.80" arrivalSpeed="11.22" duration="77.00" routeLength="990.53" waitingTime="0.00" waitingCount="0" stopTime="0.00" timeLoss="9.07" rerouteNo="0" devices="tripinfo_EW_29" vType="car" speedFactor="1.05" vaporized=""/>
    <tripinfo id="WE_12" depart="12.00" departLane="1i_0" departPos="4.10" departSpeed="0.00" departDelay="0.00" arrival="107.00" arrivalLane="3o_0" arrivalPos="492.80" arrivalSpeed="8.59" duration="95.00" routeLength="990.53" waitingTime="0.00" waitingCount="0" stopTime="0.00" timeLoss="9.73" rerouteNo="0" devices="tripinfo_WE_12" vType="car" speedFactor="0.83" vaporized=""/>
    <tripinfo id="WE_16" depart="16.00" departLane="1i_0" departPos="4.10" departSpeed="0.00" departDelay="0.00" arrival="109.00" arrivalLane="3o_0" arrivalPos="492.80" arrivalSpeed="9.28" duration="93.00" routeLength="990.53" waitingTime="0.00" waitingCount="0" stopTime="0.00" timeLoss="17.19" rerouteNo="0" devices="tripinfo_WE_16" vType="car" speedFactor="0.94" vaporized=""/>
    <tripinfo id="SN_16" depart="16.00" departLane="3i_0" departPos="4.10" departSpeed="0.00" departDelay="0.00" arrival="109.00" arrivalLane="4o_0" arrivalPos="492.80" arrivalSpeed="8.96" duration="93.00" routeLength="995.90" waitingTime="0.00" waitingCount="0" stopTime="0.00" timeLoss="9.95" rerouteNo="0" devices="tripinfo_SN_16" vType="car" speedFactor="0.86" vaporized=""/>
    <tripinfo id="NS_25" depart="25.00" departLane="2i_0" departPos="4.10" departSpeed="0.00" departDelay="0.00" arrival="110.00" arrivalLane="3o_0" arrivalPos="492.80" arrivalSpeed="10.27" duration="85.00" routeLength="995.70" waitingTime="0.00" waitingCount="0" stopTime="0.00" timeLoss="15.94" rerouteNo="0" devices="tripinfo_NS_25" vType="car" speedFactor="1.03" vaporized=""/>
    <tripinfo id="EW_15" depart="15.00" departLane="4i_0" departPos="4.10" departSpeed="0.00" departDelay="0.00" arrival="111.00" arrivalLane="2o_0" arrivalPos="492.80" arrivalSpeed="9.35" duration="96.00" routeLength="995.70" waitingTime="2.00" waitingCount="2" stopTime="0.00" timeLoss="16.23" rerouteNo="0" devices="tripinfo_EW_15" vType="car" speedFactor="0.89" vaporized=""/>
    <tripinfo id="NS_31" depart="31.00" departLane="2i_0" departPos="4.10" departSpeed="0.00" departDelay="0.00" arrival="111.00" arrivalLane="4o_0" arrivalPos="492.80" arrivalSpeed="10.26" duration="80.00" routeLength="990.53" waitingTime="0.00" waitingCount="0" stopTime="0.00" timeLoss="8.66" rerouteNo="0" devices="tripinfo_NS_31" vType="car" speedFactor="0.99" vaporized=""/>
    <tripinfo id="WE_30" depart="30.00" departLane="1i_0" departPos="4.10" departSpeed="0.00" departDelay="0.00" arrival="113.00" arrivalLane="4o_0" arrivalPos="492.80" arrivalSpeed="12.29" duration="83.00" routeLength="995.70" waitingTime="0.00" waitingCount="0" stopTime="0.00" timeLoss="19.38" rerouteNo="0" devices="tripinfo_WE_30" vType="car" speedFactor="1.12" vaporized=""/>
    <tripinfo id="SN_17" depart="19.00" departLane="3i_0" departPos="10.10" departSpeed="0.00" departDelay="2.00" arrival="114.00" arrivalLane="2o_0" arrivalPos="492.80" arrivalSpeed="11.27" duration="95.00" routeLength="984.53" waitingTime="0.00" waitingCount="0" stopTime="0.00" timeLoss="27.03" rerouteNo="0" devices="tripinfo_SN_17" vType="truck" speedFactor="1.05" vaporized=""/>
    <tripinfo id="SN_33" depart="33.00" departLane="3i_0" departPos="4.10" departSpeed="0.00" departDelay="0.00" arrival="118.00" arrivalLane="2o_0" arrivalPos="492.80" arrivalSpeed="9.49" duration="85.00" routeLength="990.53" waitingTime="0.00" waitingCount="0" stopTime="0.00" timeLoss="8.95" rerouteNo="0" devices="tripinfo_SN_33" vType="car" speedFactor="0.93" vaporized=""/>
    <tripinfo id="WE_52" depart="52.00" departLane="1i_0" departPos="4.10" departSpeed="0.00" departDelay="0.00" arrival="122.00" arrivalLane="3o_0" arrivalPos="492.80" arrivalSpeed="11.86" duration="70.00" routeLength="990.53" waitingTime="0.00" waitingCount="0" stopTime="0.00" timeLoss="8.87" rerouteNo="0" devices="tripinfo_WE_52" vType="car" speedFactor="1.16" vaporized=""/>
    <tripinfo id="EW_38" depart="38.00" departLane="4i_0" departPos="4.10" departSpeed="0.00" departDelay="0.00" arrival="128.00" arrivalLane="2o_0" arrivalPos="492.80" arrivalSpeed="8.83" duration="90.00" routeLength="995.70" waitingTime="0.00" waitingCount="0" stopTime="0.00" timeLoss="9.17" rerouteNo="0" devices="tripinfo_EW_38" vType="car" speedFactor="0.88" vaporized=""/>
    <tripinfo id="EW_46" depart="46.00" departLane="4i_0" departPos="4.10" departSpeed="0.00" departDelay="0.00" arrival="131.00" arrivalLane="2o_0" arrivalPos="492.80" arrivalSpeed="9.50" duration="85.00" routeLength="995.70" waitingTime="0.00" waitingCount="0" stopTime="0.00" timeLoss="9.51" rerouteNo="0" devices="tripinfo_EW_46" vType="car" speedFactor="0.94" vaporized=""/>
    <tripinfo id="SN_53" depart="53.00" departLane="3i_0" departPos="4.10" departSpeed="0.00" departDelay="0.00" arrival="134.00" arrivalLane="2o_0" arrivalPos="492.80" arrivalSpeed="10.49" duration="81.00" routeLength="990.53" waitingTime="1.00" waitingCount="1" stopTime="0.00" timeLoss="10.59" rerouteNo="0" devices="tripinfo_SN_53" vType="car" speedFactor="1.01" vaporized=""/>
    <tripinfo id="EW_51" depart="51.00" departLane="4i_0" departPos="4.10" departSpeed="0.00" departDelay="0.00" arrival="138.00" arrivalLane="3o_0" arrivalPos="492.80" arrivalSpeed="9.20" duration="87.00" routeLength="995.90" waitingTime="1.00" waitingCount="1" stopTime="0.00" timeLoss="11.40" rerouteNo="0" devices="tripinfo_EW_51" vType="car" speedFactor="0.94" vaporized=""/>
    <tripinfo id="EW_57" depart="57.00" departLane="4i_0" departPos="4.10" departSpeed="0.00" departDelay="0.00" arrival="140.00" arrivalLane="3o_0" arrivalPos="492.80" arrivalSpeed="10.53" duration="83.00" routeLength="995.90" waitingTime="0.00" waitingCount="0" stopTime="0.00" timeLoss="10.18" rerouteNo="0" devices="tripinfo_EW_57" vType="car" speedFactor="0.97" vaporized=""/>
    <tripinfo id="WE_53" depart="56.00" departLane="1i_0" departPos="10.10" departSpeed="0.00" departDelay="3.00" arrival="144.00" arrivalLane="3o_0" arrivalPos="492.80" arrivalSpeed="11.11" duration="88.00" routeLength="984.53" waitingTime="0.00" waitingCount="0" stopTime="0.00" timeLoss="18.59" rerouteNo="0" devices="tripinfo_WE_53" vType="truck" speedFactor="1.01" vaporized=""/>
    <tripinfo id="SN_75" depart="75.00" departLane="3i_0" departPos="4.10" departSpeed="0.00" departDelay="0.00" arrival="160.00" arrivalLane="2o_0" arrivalPos="492.80" arrivalSpeed="9.16" duration="85.00" routeLength="990.53" waitingTime="0.00" waitingCount="0" stopTime="0.00" timeLoss="8.55" rerouteNo="0" devices="tripinfo_SN_75" vType="car" speedFactor="0.93" vaporized=""/>
    <tripinfo id="NS_60" depart="60.00" departLane="2i_0" departPos="10.10" departSpeed="0.00" departDelay="0.00" arrival="163.00" arrivalLane="3o_0" arrivalPos="492.80" arrivalSpeed="9.57" duration="103.00" routeLength="989.70" waitingTime="7.00" waitingCount="1" stopTime="0.00" timeLoss="25.74" rerouteNo="0" devices="tripinfo_NS_60" vType="truck" speedFactor="0.91" vaporized=""/>
    <tripinfo id="WE_58" depart="60.00" departLane="1i_0" departPos="4.10" departSpeed="0.00" departDelay="2.00" arrival="164.00" arrivalLane="4o_0" arrivalPos="492.80" arrivalSpeed="8.83" duration="104.00" routeLength="995.70" waitingTime="7.00" waitingCount="1" stopTime="0.00" timeLoss="23.97" rerouteNo="0" devices="tripinfo_WE_58" vType="car" speedFactor="0.89" vaporized=""/>
    <tripinfo id="NS_69" depart="69.00" departLane="2i_0" departPos="4.10" departSpeed="0.00" departDelay="0.00" arrival="164.00" arrivalLane="1o_0" arrivalPos="492.80" arrivalSpeed="10.41" duration="95.00" routeLength="995.90" waitingTime="4.00" waitingCount="1" stopTime="0.00" timeLoss="19.77" rerouteNo="0" devices="tripinfo_NS_69" vType="car" speedFactor="0.95" vaporized=""/>
    <tripinfo id="NS_76" depart="76.00" departLane="2i_0" departPos="4.10" departSpeed="0.00" departDelay="0.00" arrival="165.00" arrivalLane="1o_0" arrivalPos="492.80" arrivalSpeed="12.25" duration="89.00" routeLength="995.90" waitingTime="2.00" waitingCount="1" stopTime="0.00" timeLoss="28.92" rerouteNo="0" devices="tripinfo_NS_76" vType="car" speedFactor="1.18" vaporized=""/>
    <tripinfo id="SN_80" depart="80.00" departLane="3i_0" departPos="4.10" departSpeed="0.00" departDelay="0.00" arrival="165.00" arrivalLane="4o_0" arrivalPos="492.80" arrivalSpeed="10.94" duration="85.00" routeLength="995.90" waitingTime="0.00" waitingCount="0" stopTime="0.00" timeLoss="23.89" rerouteNo="0" devices="tripinfo_SN_80" vType="car" speedFactor="1.15" vaporized=""/>
    <tripinfo id="WE_69" depart="69.00" departLane="1i_0" departPos="4.10" departSpeed="0.00" departDelay="0.00" arrival="170.00" arrivalLane="3o_0" arrivalPos="492.80" arrivalSpeed="8.93" duration="101.00" routeLength="990.53" waitingTime="5.00" waitingCount="2" stopTime="0.00" timeLoss="20.35" rerouteNo="0" devices="tripinfo_WE_69" vType="car" speedFactor="0.87" vaporized=""/>
    <tripinfo id="EW_69" depart="69.00" departLane="4i_0" departPos="10.10" departSpeed="0.00" departDelay="0.00" arrival="173.00" arrivalLane="3o_0" arrivalPos="492.80" arrivalSpeed="10.21" duration="104.00" routeLength="989.90" waitingTime="4.00" waitingCount="1" stopTime="0.00" timeLoss="29.83" rerouteNo="0" devices="tripinfo_EW_69" vType="truck" speedFactor="0.96" vaporized=""/>
    <tripinfo id="WE_71" depart="71.00" departLane="1i_0" departPos="4.10" departSpeed="0.00" departDelay="0.00" arrival="175.00" arrivalLane="4o_0" arrivalPos="492.80" arrivalSpeed="12.33" duration="104.00" routeLength="995.70" waitingTime="13.00" waitingCount="3" stopTime="0.00" timeLoss="40.83" rerouteNo="0" devices="tripinfo_WE_71" vType="car" speedFactor="1.13" vaporized=""/>
    <tripinfo id="EW_82" depart="82.00" departLane="4i_0" departPos="10.10" departSpeed="0.00" departDelay="0.00" arrival="175.00" arrivalLane="3o_0" arrivalPos="492.80" arrivalSpeed="10.58" duration="93.00" routeLength="989.90" waitingTime="0.00" waitingCount="0" stopTime="0.00" timeLoss="22.84" rerouteNo="0" devices="tripinfo_EW_82" vType="truck" speedFactor="1.00" vaporized=""/>
    <tripinfo id="SN_82" depart="83.00" departLane="3i_0" departPos="4.10" departSpeed="0.00" departDelay="1.00" arrival="177.00" arrivalLane="4o_0" arrivalPos="492.80" arrivalSpeed="12.41" duration="94.00" routeLength="995.90" waitingTime="13.00" waitingCount="3" stopTime="0.00" timeLoss="33.50" rerouteNo="0" devices="tripinfo_SN_82" vType="car" speedFactor="1.17" vaporized=""/>
    <tripinfo id="NS_83" depart="83.00" departLane="2i_0" departPos="10.10" departSpeed="0.00" departDelay="0.00" arrival="181.00" arrivalLane="3o_0" arrivalPos="492.80" arrivalSpeed="10.62" duration="98.00" routeLength="989.70" waitingTime="3.00" waitingCount="1" stopTime="0.00" timeLoss="27.09" rerouteNo="0" devices="tripinfo_NS_83" vType="truck" speedFactor="1.00" vaporized=""/>
    <tripinfo id="EW_92" depart="92.00" departLane="4i_0" departPos="4.10" departSpeed="0.00" departDelay="0.00" arrival="182.00" arrivalLane="1o_0" arrivalPos="492.80" arrivalSpeed="12.84" duration="90.00" routeLength="990.53" waitingTime="3.00" waitingCount="2" stopTime="0.00" timeLoss="30.34" rerouteNo="0" devices="tripinfo_EW_92" vType="car" speedFactor="1.18" vaporized=""/>
    <tripinfo id="EW_88" depart="88.00" departLane="4i_0" departPos="4.10" departSpeed="0.00" departDelay="0.00" arrival="183.00" arrivalLane="3o_0" arrivalPos="492.80" arrivalSpeed="10.92" duration="95.00" routeLength="995.90" waitingTime="2.00" waitingCount="1" stopTime="0.00" timeLoss="25.85" rerouteNo="0" devices="tripinfo_EW_88" vType="car" speedFactor="1.02" vaporized=""/>
    <tripinfo id="WE_89" depart="89.00" departLane="1i_0" departPos="10.10" departSpeed="0.00" departDelay="0.00" arrival="189.00" arrivalLane="3o_0" arrivalPos="492.80" arrivalSpeed="10.67" duration="100.00" routeLength="984.53" waitingTime="5.00" waitingCount="2" stopTime="0.00" timeLoss="28.52" rerouteNo="0" devices="tripinfo_WE_89" vType="truck" speedFactor="0.99" vaporized=""/>
    <tripinfo id="SN_101" depart="101.00" departLane="3i_0" departPos="10.10" departSpeed="0.00" departDelay="0.00" arrival="189.00" arrivalLane="2o_0" arrivalPos="492.80" arrivalSpeed="10.47" duration="88.00" routeLength="984.53" waitingTime="0.00" waitingCount="0" stopTime="0.00" timeLoss="16.13" rerouteNo="0" devices="tripinfo_SN_101" vType="truck" speedFactor="0.98" vaporized=""/>
    <tripinfo id="WE_101" depart="101.00" departLane="1i_0" departPos="4.10" departSpeed="0.00" departDelay="0.00" arrival="190.00" arrivalLane="4o_0" arrivalPos="492.80" arrivalSpeed="11.87" duration="89.00" routeLength="995.70" waitingTime="3.00" waitingCount="1" stopTime="0.00" timeLoss="24.81" rerouteNo="0" devices="tripinfo_WE_101" vType="car" speedFactor="1.10" vaporized=""/>
    <tripinfo id="SN_102" depart="105.00" departLane="3i_0" departPos="4.10" departSpeed="0.00" departDelay="3.00" arrival="191.00" arrivalLane="2o_0" arrivalPos="492.80" arrivalSpeed="11.23" duration="86.00" routeLength="990.53" waitingTime="0.00" waitingCount="0" stopTime="0.00" timeLoss="21.45" rerouteNo="0" devices="tripinfo_SN_102" vType="car" speedFactor="1.09" vaporized=""/>
    <tripinfo id="NS_101" depart="101.00" departLane="2i_0" departPos="4.10" departSpeed="0.00" departDelay="0.00" arrival="192.00" arrivalLane="3o_0" arrivalPos="492.80" arrivalSpeed="10.42" duration="91.00" routeLength="995.70" waitingTime="6.00" waitingCount="2" stopTime="0.00" timeLoss="22.22" rerouteNo="0" devices="tripinfo_NS_101" vType="car" speedFactor="1.03" vaporized=""/>
    <tripinfo id="NS_107" depart="107.00" departLane="2i_0" departPos="10.10" departSpeed="0.00" departDelay="0.00" arrival="199.00" arrivalLane="4o_0" arrivalPos="492.80" arrivalSpeed="11.24" duration="92.00" routeLength="984.53" waitingTime="1.00" waitingCount="1" stopTime="0.00" timeLoss="23.89" rerouteNo="0" devices="tripinfo_NS_107" vType="truck" speedFactor="1.04" vaporized=""/>
    <tripinfo id="EW_101" depart="101.00" departLane="4i_0" departPos="10.10" departSpeed="0.00" departDelay="0.00" arrival="201.00" arrivalLane="3o_0" arrivalPos="492.80" arrivalSpeed="10.18" duration="100.00" routeLength="989.90" waitingTime="1.00" waitingCount="1" stopTime="0.00" timeLoss="25.70" rerouteNo="0" devices="tripinfo_EW_101" vType="truck" speedFactor="0.95" vaporized=""/>
    <tripinfo id="SN_107" depart="107.00" departLane="3i_0" departPos="4.10" departSpeed="0.00" departDelay="0.00" arrival="204.00" arrivalLane="1o_0" arrivalPos="492.80" arrivalSpeed="10.21" duration="97.00" routeLength="995.70" waitingTime="4.00" waitingCount="1" stopTime="0.00" timeLoss="25.40" rerouteNo="0" devices="tripinfo_SN_107" vType="car" speedFactor="1.00" vaporized=""/>
    <tripinfo id="WE_105" depart="106.00" departLane="1i_0" departPos="4.10" departSpeed="0.00" departDelay="1.00" arrival="206.00" arrivalLane="2o_0" arrivalPos="492.80" arrivalSpeed="10.85" duration="100.00" routeLength="995.90" waitingTime="2.00" waitingCount="1" stopTime="0.00" timeLoss="31.32" rerouteNo="0" devices="tripinfo_WE_105" vType="car" speedFactor="1.04" vaporized=""/>
    <tripinfo id="WE_107" depart="108.00" departLane="1i_0" departPos="4.10" departSpeed="0.00" departDelay="1.00" arrival="211.00" arrivalLane="2o_0" arrivalPos="492.80" arrivalSpeed="10.49" duration="103.00" routeLength="995.90" waitingTime="0.00" waitingCount="0" stopTime="0.00" timeLoss="34.64" rerouteNo="0" devices="tripinfo_WE_107" vType="car" speedFactor="1.04" vaporized=""/>
    <tripinfo id="SN_119" depart="119.00" departLane="3i_0" departPos="4.10" departSpeed="0.00" departDelay="0.00" arrival="217.00" arrivalLane="4o_0" arrivalPos="492.80" arrivalSpeed="8.98" duration="98.00" routeLength="995.90" waitingTime="2.00" waitingCount="1" stopTime="0.00" timeLoss="18.85" rerouteNo="0" devices="tripinfo_SN_119" vType="car" speedFactor="0.90" vaporized=""/>
    <tripinfo id="SN_128" depart="128.00" departLane="3i_0" departPos="4.10" departSpeed="0.00" departDelay="0.00" arrival="218.00" arrivalLane="4o_0" arrivalPos="492.80" arrivalSpeed="10.94" duration="90.00" routeLength="995.90" waitingTime="1.00" waitingCount="1" stopTime="0.00" timeLoss="20.47" rerouteNo="0" devices="tripinfo_SN_128" vType="car" speedFactor="1.02" vaporized=""/>
    <tripinfo id="EW_131" depart="131.00" departLane="4i_0" departPos="4.10" departSpeed="0.00" departDelay="0.00" arrival="220.00" arrivalLane="2o_0" arrivalPos="492.80" arrivalSpeed="10.67" duration="89.00" routeLength="995.70" waitingTime="5.00" waitingCount="1" stopTime="0.00" timeLoss="17.98" rerouteNo="0" devices="tripinfo_EW_131" vType="car" speedFactor="1.00" vaporized=""/>
    <tripinfo id="NS_125" depart="125.00" departLane="2i_0" departPos="10.10" departSpeed="0.00" departDelay="0.00" arrival="221.00" arrivalLane="1o_0" arrivalPos="492.80" arrivalSpeed="11.86" duration="96.00" routeLength="989.90" waitingTime="4.00" waitingCount="2" stopTime="0.00" timeLoss="29.45" rerouteNo="0" devices="tripinfo_NS_125" vType="truck" speedFactor="1.08" vaporized=""/>
    <tripinfo id="EW_133" depart="134.00" departLane="4i_0" departPos="4.10" departSpeed="0.00" departDelay="1.00" arrival="226.00" arrivalLane="3o_0" arrivalPos="492.80" arrivalSpeed="11.90" duration="92.00" routeLength="995.90" waitingTime="8.00" waitingCount="3" stopTime="0.00" timeLoss="30.24" rerouteNo="0" devices="tripinfo_EW_133" vType="car" speedFactor="1.14" vaporized=""/>
    <tripinfo id="WE_122" depart="122.00" departLane="1i_0" departPos="4.10" departSpeed="0.00" departDelay="0.00" arrival="236.00" arrivalLane="4o_0" arrivalPos="492.80" arrivalSpeed="8.67" duration="114.00" routeLength="995.70" waitingTime="9.00" waitingCount="1" stopTime="0.00" timeLoss="33.20" rerouteNo="0" devices="tripinfo_WE_122" vType="car" speedFactor="0.88" vaporized=""/>
    <tripinfo id="SN_132" depart="132.00" departLane="3i_0" departPos="4.10" departSpeed="0.00" departDelay="0.00" arrival="238.00" arrivalLane="4o_0" arrivalPos="492.80" arrivalSpeed="9.57" duration="106.00" routeLength="995.90" waitingTime="8.00" waitingCount="2" stopTime="0.00" timeLoss="27.09" rerouteNo="0" devices="tripinfo_SN_132" vType="car" speedFactor="0.90" vaporized=""/>
    <tripinfo id="SN_141" depart="141.00" departLane="3i_0" departPos="4.10" departSpeed="0.00" departDelay="0.00" arrival="241.00" arrivalLane="4o_0" arrivalPos="492.80" arrivalSpeed="9.99" duration="100.00" routeLength="995.90" waitingTime="6.00" waitingCount="2" stopTime="0.00" timeLoss="26.76" rerouteNo="0" devices="tripinfo_SN_141" vType="car" speedFactor="0.97" vaporized=""/>
    <tripinfo id="NS_157" depart="157.00" departLane="2i_0" departPos="4.10" departSpeed="0.00" departDelay="0.00" arrival="243.00" arrivalLane="4o_0" arrivalPos="492.80" arrivalSpeed="11.43" duration="86.00" routeLength="990.53" waitingTime="2.00" waitingCount="1" stopTime="0.00" timeLoss="17.65" rerouteNo="0" devices="tripinfo_NS_157" vType="car" speedFactor="1.04" vaporized=""/>
    <tripinfo id="WE_124" depart="125.00" departLane="1i_0" departPos="4.10" departSpeed="0.00" departDelay="1.00" arrival="245.00" arrivalLane="2o_0" arrivalPos="492.80" arrivalSpeed="8.23" duration="120.00" routeLength="995.90" waitingTime="7.00" waitingCount="1" stopTime="0.00" timeLoss="36.36" rerouteNo="0" devices="tripinfo_WE_124" vType="car" speedFactor="0.85" vaporized=""/>
    <tripinfo id="WE_125" depart="128.00" departLane="1i_0" departPos="4.10" departSpeed="0.00" departDelay="3.00" arrival="246.00" arrivalLane="3o_0" arrivalPos="492.80" arrivalSpeed="9.00" duration="118.00" routeLength="990.53" waitingTime="7.00" waitingCount="1" stopTime="0.00" timeLoss="35.21" rerouteNo="0" devices="tripinfo_WE_125" vType="car" speedFactor="0.85" vaporized=""/>
    <tripinfo id="SN_146" depart="146.00" departLane="3i_0" departPos="10.10" departSpeed="0.00" departDelay="0.00" arrival="247.00" arrivalLane="2o_0" arrivalPos="492.80" arrivalSpeed="10.40" duration="101.00" routeLength="984.53" waitingTime="1.00" waitingCount="1" stopTime="0.00" timeLoss="31.41" rerouteNo="0" devices="tripinfo_SN_146" vType="truck" speedFactor="1.01" vaporized=""/>
    <tripinfo id="WE_129" depart="130.00" departLane="1i_0" departPos="4.10" departSpeed="0.00" departDelay="1.00" arrival="248.00" arrivalLane="3o_0" arrivalPos="492.80" arrivalSpeed="11.85" duration="118.00" routeLength="990.53" waitingTime="7.00" waitingCount="1" stopTime="0.00" timeLoss="53.02" rerouteNo="0" devices="tripinfo_WE_129" vType="car" speedFactor="1.10" vaporized=""/>
    <tripinfo id="WE_143" depart="143.00" departLane="1i_0" departPos="4.10" departSpeed="0.00" departDelay="0.00" arrival="249.00" arrivalLane="3o_0" arrivalPos="492.80" arrivalSpeed="11.61" duration="106.00" routeLength="990.53" waitingTime="5.00" waitingCount="2" stopTime="0.00" timeLoss="41.01" rerouteNo="0" devices="tripinfo_WE_143" vType="car" speedFactor="1.08" vaporized=""/>
    <tripinfo id="EW_136" depart="137.00" departLane="4i_0" departPos="4.10" departSpeed="0.00" departDelay="1.00" arrival="250.00" arrivalLane="2o_0" arrivalPos="492.80" arrivalSpeed="10.54" duration="113.00" routeLength="995.70" waitingTime="11.00" waitingCount="3" stopTime="0.00" timeLoss="43.19" rerouteNo="0" devices="tripinfo_EW_136" vType="car" speedFactor="1.02" vaporized=""/>
    <tripinfo id="SN_149" depart="150.00" departLane="3i_0" departPos="4.10" departSpeed="0.00" departDelay="1.00" arrival="250.00" arrivalLane="1o_0" arrivalPos="492.80" arrivalSpeed="9.20" duration="100.00" routeLength="995.70" waitingTime="0.00" waitingCount="0" stopTime="0.00" timeLoss="24.58" rerouteNo="0" devices="tripinfo_SN_149" vType="car" speedFactor="0.94" vaporized=""/>
    <tripinfo id="WE_131" depart="133.00" departLane="1i_0" departPos="4.10" departSpeed="0.00" departDelay="2.00" arrival="251.00" arrivalLane="2o_0" arrivalPos="492.80" arrivalSpeed="10.06" duration="118.00" routeLength="995.90" waitingTime="7.00" waitingCount="3" stopTime="0.00" timeLoss="47.72" rerouteNo="0" devices="tripinfo_WE_131" vType="car" speedFactor="1.00" vaporized=""/>
    <tripinfo id="WE_145" depart="146.00" departLane="1i_0" departPos="4.10" departSpeed="0.00" departDelay="1.00" arrival="251.00" arrivalLane="4o_0" arrivalPos="492.80" arrivalSpeed="11.51" duration="105.00" routeLength="995.70" waitingTime="5.00" waitingCount="1" stopTime="0.00" timeLoss="41.34" rerouteNo="0" devices="tripinfo_WE_145" vType="car" speedFactor="1.12" vaporized=""/>
    <tripinfo id="NS_158" depart="160.00" departLane="2i_0" departPos="4.10" departSpeed="0.00" departDelay="2.00" arrival="253.00" arrivalLane="3o_0" arrivalPos="492.80" arrivalSpeed="10.54" duration="93.00" routeLength="995.70" waitingTime="5.00" waitingCount="1" stopTime="0.00" timeLoss="24.01" rerouteNo="0" devices="tripinfo_NS_158" vType="car" speedFactor="1.02" vaporized=""/>
    <tripinfo id="WE_149" depart="149.00" departLane="1i_0" departPos="4.10" departSpeed="0.00" departDelay="0.00" arrival="262.00" arrivalLane="4o_0" arrivalPos="492.80" arrivalSpeed="9.78" duration="113.00" routeLength="995.70" waitingTime="5.00" waitingCount="1" stopTime="0.00" timeLoss="41.14" rerouteNo="0" devices="tripinfo_WE_149" vType="car" speedFactor="0.99" vaporized=""/>
    <tripinfo id="EW_152" depart="152.00" departLane="4i_0" departPos="4.10" departSpeed="0.00" departDelay="0.00" arrival="264.00" arrivalLane="3o_0" arrivalPos="492.80" arrivalSpeed="9.76" duration="112.00" routeLength="995.90" waitingTime="14.00" waitingCount="3" stopTime="0.00" timeLoss="33.65" rerouteNo="0" devices="tripinfo_EW_152" vType="car" speedFactor="0.91" vaporized=""/>
    <tripinfo id="NS_169" depart="169.00" departLane="2i_0" departPos="4.10" departSpeed="0.00" departDelay="0.00" arrival="265.00" arrivalLane="3o_0" arrivalPos="492.80" arrivalSpeed="11.57" duration="96.00" routeLength="995.70" waitingTime="6.00" waitingCount="2" stopTime="0.00" timeLoss="29.16" rerouteNo="0" devices="tripinfo_NS_169" vType="car" speedFactor="1.06" vaporized=""/>
    <tripinfo id="WE_166" depart="166.00" departLane="1i_0" departPos="4.10" departSpeed="0.00" departDelay="0.00" arrival="266.00" arrivalLane="4o_0" arrivalPos="492.80" arrivalSpeed="9.40" duration="100.00" routeLength="995.70" waitingTime="0.00" waitingCount="0" stopTime="0.00" timeLoss="24.77" rerouteNo="0" devices="tripinfo_WE_166" vType="car" speedFactor="0.94" vaporized=""/>
    <tripinfo id="EW_155" depart="156.00" departLane="4i_0" departPos="10.10" departSpeed="0.00" departDelay="1.00" arrival="268.00" arrivalLane="2o_0" arrivalPos="492.80" arrivalSpeed="10.59" duration="112.00" routeLength="989.70" waitingTime="5.00" waitingCount="2" stopTime="0.00" timeLoss="37.83" rerouteNo="0" devices="tripinfo_EW_155" vType="truck" speedFactor="0.96" vaporized=""/>
    <tripinfo id="SN_150" depart="153.00" departLane="3i_0" departPos="4.10" departSpeed="0.00" departDelay="3.00" arrival="272.00" arrivalLane="1o_0" arrivalPos="492.80" arrivalSpeed="9.60" duration="119.00" routeLength="995.70" waitingTime="14.00" waitingCount="1" stopTime="0.00" timeLoss="38.89" rerouteNo="0" devices="tripinfo_SN_150" vType="car" speedFactor="0.88" vaporized=""/>
    <tripinfo id="SN_160" depart="160.00" departLane="3i_0" departPos="4.10" departSpeed="0.00" departDelay="0.00" arrival="274.00" arrivalLane="1o_0" arrivalPos="492.80" arrivalSpeed="11.01" duration="114.00" routeLength="995.70" waitingTime="11.00" waitingCount="1" stopTime="0.00" timeLoss="44.41" rerouteNo="0" devices="tripinfo_SN_160" vType="car" speedFactor="1.02" vaporized=""/>
    <tripinfo id="WE_172" depart="172.00" departLane="1i_0" departPos="4.10" departSpeed="0.00" departDelay="0.00" arrival="274.00" arrivalLane="2o_0" arrivalPos="492.80" arrivalSpeed="10.30" duration="102.00" routeLength="995.90" waitingTime="2.00" waitingCount="1" stopTime="0.00" timeLoss="27.34" rerouteNo="0" devices="tripinfo_WE_172" vType="car" speedFactor="0.96" vaporized=""/>
    <tripinfo id="SN_164" depart="164.00" departLane="3i_0" departPos="4.10" departSpeed="0.00" departDelay="0.00" arrival="277.00" arrivalLane="4o_0" arrivalPos="492.80" arrivalSpeed="10.12" duration="113.00" routeLength="995.90" waitingTime="12.00" waitingCount="2" stopTime="0.00" timeLoss="39.89" rerouteNo="0" devices="tripinfo_SN_164" vType="car" speedFactor="0.97" vaporized=""/>
    <tripinfo id="NS_182" depart="182.00" departLane="2i_0" departPos="10.10" departSpeed="0.00" departDelay="0.00" arrival="280.00" arrivalLane="1o_0" arrivalPos="492.80" arrivalSpeed="10.69" duration="98.00" routeLength="989.90" waitingTime="1.00" waitingCount="1" stopTime="0.00" timeLoss="27.03" rerouteNo="0" devices="tripinfo_NS_182" vType="truck" speedFactor="0.99" vaporized=""/>