<?xml version="1.0" encoding="UTF-8"?>

<!-- generated on 2024-05-05 17:09:52 by Eclipse SUMO sumo Version 1.19.0
<configuration xmlns:xsi="http://www.w3.org/2001/XMLSchema-instance" xsi:noNamespaceSchemaLocation="http://sumo.dlr.de/xsd/sumoConfiguration.xsd">

    <input>
        <net-file value="twoone.net.xml"/>
        <route-files value="route_gen.rou.xml"/>
    </input>

    <output>
        <tripinfo-output value="tripinfo_epi262.xml"/>
    </output>

    <report>
        <no-warnings value="true"/>
    </report>

    <traci_server>
        <remote-port value="33273"/>
    </traci_server>

</configuration>
-->

<tripinfos xmlns:xsi="http://www.w3.org/2001/XMLSchema-instance" xsi:noNamespaceSchemaLocation="http://sumo.dlr.de/xsd/tripinfo_file.xsd">
    <tripinfo id="WE_4" depart="4.00" departLane="1i_0" departPos="4.10" departSpeed="0.00" departDelay="0.00" arrival="81.00" arrivalLane="2o_0" arrivalPos="492.80" arrivalSpeed="11.48" duration="77.00" routeLength="995.90" waitingTime="1.00" waitingCount="1" stopTime="0.00" timeLoss="10.07" rerouteNo="0" devices="tripinfo_WE_4" vType="car" speedFactor="1.06" vaporized=""/>
    <tripinfo id="WE_16" depart="16.00" departLane="1i_0" departPos="4.10" departSpeed="0.00" departDelay="0.00" arrival="89.00" arrivalLane="3o_0" arrivalPos="492.80" arrivalSpeed="11.74" duration="73.00" routeLength="990.53" waitingTime="0.00" waitingCount="0" stopTime="0.00" timeLoss="7.81" rerouteNo="0" devices="tripinfo_WE_16" vType="car" speedFactor="1.08" vaporized=""/>
    <tripinfo id="NS_8" depart="8.00" departLane="2i_0" departPos="4.10" departSpeed="0.00" departDelay="0.00" arrival="100.00" arrivalLane="3o_0" arrivalPos="492.80" arrivalSpeed="9.70" duration="92.00" routeLength="995.70" waitingTime="2.00" waitingCount="1" stopTime="0.00" timeLoss="16.10" rerouteNo="0" devices="tripinfo_NS_8" vType="car" speedFactor="0.94" vaporized=""/>
    <tripinfo id="NS_13" depart="13.00" departLane="2i_0" departPos="4.10" departSpeed="0.00" departDelay="0.00" arrival="102.00" arrivalLane="3o_0" arrivalPos="492.80" arrivalSpeed="10.36" duration="89.00" routeLength="995.70" waitingTime="1.00" waitingCount="1" stopTime="0.00" timeLoss="18.32" rerouteNo="0" devices="tripinfo_NS_13" vType="car" speedFactor="1.01" vaporized=""/>
    <tripinfo id="EW_18" depart="18.00" departLane="4i_0" departPos="4.10" departSpeed="0.00" departDelay="0.00" arrival="103.00" arrivalLane="3o_0" arrivalPos="492.80" arrivalSpeed="11.01" duration="85.00" routeLength="995.90" waitingTime="2.00" waitingCount="2" stopTime="0.00" timeLoss="16.23" rerouteNo="0" devices="tripinfo_EW_18" vType="car" speedFactor="1.03" vaporized=""/>
    <tripinfo id="NS_24" depart="24.00" departLane="2i_0" departPos="4.10" departSpeed="0.00" departDelay="0.00" arrival="104.00" arrivalLane="1o_0" arrivalPos="492.80" arrivalSpeed="10.35" duration="80.00" routeLength="995.90" waitingTime="1.00" waitingCount="1" stopTime="0.00" timeLoss="12.20" rerouteNo="0" devices="tripinfo_NS_24" vType="car" speedFactor="1.05" vaporized=""/>
    <tripinfo id="WE_26" depart="26.00" departLane="1i_0" departPos="4.10" departSpeed="0.00" departDelay="0.00" arrival="110.00" arrivalLane="3o_0" arrivalPos="492.80" arrivalSpeed="9.88" duration="84.00" routeLength="990.53" waitingTime="0.00" waitingCount="0" stopTime="0.00" timeLoss="8.66" rerouteNo="0" devices="tripinfo_WE_26" vType="car" speedFactor="0.94" vaporized=""/>
    <tripinfo id="SN_24" depart="24.00" departLane="3i_0" departPos="4.10" departSpeed="0.00" departDelay="0.00" arrival="116.00" arrivalLane="2o_0" arrivalPos="492.80" arrivalSpeed="8.67" duration="92.00" routeLength="990.53" waitingTime="1.00" waitingCount="1" stopTime="0.00" timeLoss="11.93" rerouteNo="0" devices="tripinfo_SN_24" vType="car" speedFactor="0.89" vaporized=""/>
    <tripinfo id="EW_24" depart="24.00" departLane="4i_0" departPos="4.10" departSpeed="0.00" departDelay="0.00" arrival="119.00" arrivalLane="3o_0" arrivalPos="492.80" arrivalSpeed="8.12" duration="95.00" routeLength="995.90" waitingTime="0.00" waitingCount="0" stopTime="0.00" timeLoss="9.80" rerouteNo="0" devices="tripinfo_EW_24" vType="car" speedFactor="0.83" vaporized=""/>
    <tripinfo id="SN_30" depart="30.00" departLane="3i_0" departPos="10.10" departSpeed="0.00" departDelay="0.00" arrival="119.00" arrivalLane="4o_0" arrivalPos="492.80" arrivalSpeed="10.11" duration="89.00" routeLength="989.90" waitingTime="0.00" waitingCount="0" stopTime="0.00" timeLoss="12.28" rerouteNo="0" devices="tripinfo_SN_30" vType="truck" speedFactor="0.93" vaporized=""/>
    <tripinfo id="WE_38" depart="38.00" departLane="1i_0" departPos="4.10" departSpeed="0.00" departDelay="0.00" arrival="121.00" arrivalLane="3o_0" arrivalPos="492.80" arrivalSpeed="10.23" duration="83.00" routeLength="990.53" waitingTime="0.00" waitingCount="0" stopTime="0.00" timeLoss="11.56" rerouteNo="0" devices="tripinfo_WE_38" vType="car" speedFactor="0.99" vaporized=""/>
    <tripinfo id="EW_41" depart="41.00" departLane="4i_0" departPos="4.10" departSpeed="0.00" departDelay="0.00" arrival="125.00" arrivalLane="1o_0" arrivalPos="492.80" arrivalSpeed="10.13" duration="84.00" routeLength="990.53" waitingTime="0.00" waitingCount="0" stopTime="0.00" timeLoss="9.06" rerouteNo="0" devices="tripinfo_EW_41" vType="car" speedFactor="0.94" vaporized=""/>
    <tripinfo id="SN_33" depart="34.00" departLane="3i_0" departPos="4.10" departSpeed="0.00" departDelay="1.00" arrival="127.00" arrivalLane="1o_0" arrivalPos="492.80" arrivalSpeed="12.01" duration="93.00" routeLength="995.70" waitingTime="0.00" waitingCount="0" stopTime="0.00" timeLoss="27.64" rerouteNo="0" devices="tripinfo_SN_33" vType="car" speedFactor="1.09" vaporized=""/>
    <tripinfo id="NS_37" depart="37.00" departLane="2i_0" departPos="10.10" departSpeed="0.00" departDelay="0.00" arrival="129.00" arrivalLane="1o_0" arrivalPos="492.80" arrivalSpeed="11.09" duration="92.00" routeLength="989.90" waitingTime="1.00" waitingCount="1" stopTime="0.00" timeLoss="23.28" rerouteNo="0" devices="tripinfo_NS_37" vType="truck" speedFactor="1.02" vaporized=""/>
    <tripinfo id="WE_40" depart="41.00" departLane="1i_0" departPos="4.10" departSpeed="0.00" departDelay="1.00" arrival="131.00" arrivalLane="2o_0" arrivalPos="492.80" arrivalSpeed="9.46" duration="90.00" routeLength="995.90" waitingTime="1.00" waitingCount="1" stopTime="0.00" timeLoss="13.69" rerouteNo="0" devices="tripinfo_WE_40" vType="car" speedFactor="0.93" vaporized=""/>
    <tripinfo id="WE_52" depart="52.00" departLane="1i_0" departPos="4.10" departSpeed="0.00" departDelay="0.00" arrival="133.00" arrivalLane="2o_0" arrivalPos="492.80" arrivalSpeed="10.76" duration="81.00" routeLength="995.90" waitingTime="0.00" waitingCount="0" stopTime="0.00" timeLoss="10.69" rerouteNo="0" devices="tripinfo_WE_52" vType="car" speedFactor="1.01" vaporized=""/>
    <tripinfo id="NS_41" depart="41.00" departLane="2i_0" departPos="4.10" departSpeed="0.00" departDelay="0.00" arrival="135.00" arrivalLane="4o_0" arrivalPos="492.80" arrivalSpeed="10.18" duration="94.00" routeLength="990.53" waitingTime="0.00" waitingCount="0" stopTime="0.00" timeLoss="18.58" rerouteNo="0" devices="tripinfo_NS_41" vType="car" speedFactor="0.94" vaporized=""/>
    <tripinfo id="SN_36" depart="36.00" departLane="3i_0" departPos="4.10" departSpeed="0.00" departDelay="0.00" arrival="143.00" arrivalLane="4o_0" arrivalPos="492.80" arrivalSpeed="10.56" duration="107.00" routeLength="995.90" waitingTime="14.00" waitingCount="1" stopTime="0.00" timeLoss="37.64" rerouteNo="0" devices="tripinfo_SN_36" vType="car" speedFactor="1.03" vaporized=""/>
    <tripinfo id="EW_51" depart="51.00" departLane="4i_0" departPos="4.10" departSpeed="0.00" departDelay="0.00" arrival="143.00" arrivalLane="1o_0" arrivalPos="492.80" arrivalSpeed="10.41" duration="92.00" routeLength="990.53" waitingTime="8.00" waitingCount="1" stopTime="0.00" timeLoss="22.27" rerouteNo="0" devices="tripinfo_EW_51" vType="car" speedFactor="1.02" vaporized=""/>
    <tripinfo id="SN_37" depart="40.00" departLane="3i_0" departPos="4.10" departSpeed="0.00" departDelay="3.00" arrival="146.00" arrivalLane="4o_0" arrivalPos="492.80" arrivalSpeed="11.42" duration="106.00" routeLength="995.90" waitingTime="18.00" waitingCount="3" stopTime="0.00" timeLoss="42.67" rerouteNo="0" devices="tripinfo_SN_37" vType="car" speedFactor="1.12" vaporized=""/>
    <tripinfo id="NS_56" depart="56.00" departLane="2i_0" departPos="4.10" departSpeed="0.00" departDelay="0.00" arrival="146.00" arrivalLane="3o_0" arrivalPos="492.80" arrivalSpeed="9.35" duration="90.00" routeLength="995.70" waitingTime="0.00" waitingCount="0" stopTime="0.00" timeLoss="9.79" rerouteNo="0" devices="tripinfo_NS_56" vType="car" speedFactor="0.89" vaporized=""/>
    <tripinfo id="SN_40" depart="43.00" departLane="3i_0" departPos="4.10" departSpeed="0.00" departDelay="3.00" arrival="161.00" arrivalLane="4o_0" arrivalPos="492.80" arrivalSpeed="8.96" duration="118.00" routeLength="995.90" waitingTime="14.00" waitingCount="2" stopTime="0.00" timeLoss="37.47" rerouteNo="0" devices="tripinfo_SN_40" vType="car" speedFactor="0.88" vaporized=""/>
    <tripinfo id="WE_73" depart="73.00" departLane="1i_0" departPos="4.10" departSpeed="0.00" departDelay="0.00" arrival="163.00" arrivalLane="4o_0" arrivalPos="492.80" arrivalSpeed="10.22" duration="90.00" routeLength="995.70" waitingTime="0.00" waitingCount="0" stopTime="0.00" timeLoss="13.56" rerouteNo="0" devices="tripinfo_WE_73" vType="car" speedFactor="0.93" vaporized=""/>
    <tripinfo id="SN_47" depart="47.00" departLane="3i_0" departPos="10.10" departSpeed="0.00" departDelay="0.00" arrival="164.00" arrivalLane="1o_0" arrivalPos="492.80" arrivalSpeed="11.96" duration="117.00" routeLength="989.70" waitingTime="14.00" waitingCount="2" stopTime="0.00" timeLoss="50.14" rerouteNo="0" devices="tripinfo_SN_47" vType="truck" speedFactor="1.08" vaporized=""/>
    <tripinfo id="EW_56" depart="56.00" departLane="4i_0" departPos="4.10" departSpeed="0.00" departDelay="0.00" arrival="166.00" arrivalLane="2o_0" arrivalPos="492.80" arrivalSpeed="10.72" duration="110.00" routeLength="995.70" waitingTime="20.00" waitingCount="3" stopTime="0.00" timeLoss="37.62" rerouteNo="0" devices="tripinfo_EW_56" vType="car" speedFactor="0.97" vaporized=""/>
    <tripinfo id="NS_84" depart="84.00" departLane="2i_0" departPos="4.10" departSpeed="0.00" departDelay="0.00" arrival="166.00" arrivalLane="1o_0" arrivalPos="492.80" arrivalSpeed="12.59" duration="82.00" routeLength="995.90" waitingTime="5.00" waitingCount="2" stopTime="0.00" timeLoss="21.26" rerouteNo="0" devices="tripinfo_NS_84" vType="car" speedFactor="1.17" vaporized=""/>
    <tripinfo id="WE_82" depart="82.00" departLane="1i_0" departPos="4.10" departSpeed="0.00" departDelay="0.00" arrival="167.00" arrivalLane="4o_0" arrivalPos="492.80" arrivalSpeed="12.67" duration="85.00" routeLength="995.70" waitingTime="7.00" waitingCount="2" stopTime="0.00" timeLoss="23.76" rerouteNo="0" devices="tripinfo_WE_82" vType="car" speedFactor="1.15" vaporized=""/>
    <tripinfo id="NS_87" depart="87.00" departLane="2i_0" departPos="4.10" departSpeed="0.00" departDelay="0.00" arrival="176.00" arrivalLane="3o_0" arrivalPos="492.80" arrivalSpeed="10.60" duration="89.00" routeLength="995.70" waitingTime="1.00" waitingCount="1" stopTime="0.00" timeLoss="18.93" rerouteNo="0" devices="tripinfo_NS_87" vType="car" speedFactor="1.02" vaporized=""/>
    <tripinfo id="EW_71" depart="71.00" departLane="4i_0" departPos="4.10" departSpeed="0.00" departDelay="0.00" arrival="177.00" arrivalLane="3o_0" arrivalPos="492.80" arrivalSpeed="11.70" duration="106.00" routeLength="995.90" waitingTime="14.00" waitingCount="2" stopTime="0.00" timeLoss="43.48" rerouteNo="0" devices="tripinfo_EW_71" vType="car" speedFactor="1.13" vaporized=""/>
    <tripinfo id="WE_87" depart="87.00" departLane="1i_0" departPos="4.10" departSpeed="0.00" departDelay="0.00" arrival="178.00" arrivalLane="4o_0" arrivalPos="492.80" arrivalSpeed="10.73" duration="91.00" routeLength="995.70" waitingTime="4.00" waitingCount="1" stopTime="0.00" timeLoss="19.27" rerouteNo="0" devices="tripinfo_WE_87" vType="car" speedFactor="0.99" vaporized=""/>
    <tripinfo id="WE_92" depart="92.00" departLane="1i_0" departPos="4.10" departSpeed="0.00" departDelay="0.00" arrival="179.00" arrivalLane="4o_0" arrivalPos="492.80" arrivalSpeed="11.98" duration="87.00" routeLength="995.70" waitingTime="4.00" waitingCount="2" stopTime="0.00" timeLoss="27.03" rerouteNo="0" devices="tripinfo_WE_92" vType="car" speedFactor="1.18" vaporized=""/>
    <tripinfo id="NS_99" depart="99.00" departLane="2i_0" departPos="4.10" departSpeed="0.00" departDelay="0.00" arrival="181.00" arrivalLane="3o_0" arrivalPos="492.80" arrivalSpeed="10.90" duration="82.00" routeLength="995.70" waitingTime="0.00" waitingCount="0" stopTime="0.00" timeLoss="12.82" rerouteNo="0" devices="tripinfo_NS_99" vType="car" speedFactor="1.03" vaporized=""/>
    <tripinfo id="EW_58" depart="58.00" departLane="4i_0" departPos="4.10" departSpeed="0.00" departDelay="0.00" arrival="183.00" arrivalLane="1o_0" arrivalPos="492.80" arrivalSpeed="8.68" duration="125.00" routeLength="990.53" waitingTime="18.00" waitingCount="4" stopTime="0.00" timeLoss="39.60" rerouteNo="0" devices="tripinfo_EW_58" vType="car" speedFactor="0.83" vaporized=""/>
    <tripinfo id="EW_82" depart="82.00" departLane="4i_0" departPos="10.10" departSpeed="0.00" departDelay="0.00" arrival="185.00" arrivalLane="1o_0" arrivalPos="492.80" arrivalSpeed="10.31" duration="103.00" routeLength="984.53" waitingTime="2.00" waitingCount="1" stopTime="0.00" timeLoss="33.18" rerouteNo="0" devices="tripinfo_EW_82" vType="truck" speedFactor="1.00" vaporized=""/>
    <tripinfo id="WE_105" depart="105.00" departLane="1i_0" departPos="4.10" departSpeed="0.00" departDelay="0.00" arrival="188.00" arrivalLane="2o_0" arrivalPos="492.80" arrivalSpeed="11.02" duration="83.00" routeLength="995.90" waitingTime="0.00" waitingCount="0" stopTime="0.00" timeLoss="14.41" rerouteNo="0" devices="tripinfo_WE_105" vType="car" speedFactor="1.04" vaporized=""/>
    <tripinfo id="WE_99" depart="99.00" departLane="1i_0" departPos="4.10" departSpeed="0.00" departDelay="0.00" arrival="190.00" arrivalLane="3o_0" arrivalPos="492.80" arrivalSpeed="9.00" duration="91.00" routeLength="990.53" waitingTime="0.00" waitingCount="0" stopTime="0.00" timeLoss="12.87" rerouteNo="0" devices="tripinfo_WE_99" vType="car" speedFactor="0.90" vaporized=""/>
    <tripinfo id="SN_58" depart="58.00" departLane="3i_0" departPos="4.10" departSpeed="0.00" departDelay="0.00" arrival="194.00" arrivalLane="1o_0" arrivalPos="492.80" arrivalSpeed="9.53" duration="136.00" routeLength="995.70" waitingTime="19.00" waitingCount="4" stopTime="0.00" timeLoss="54.87" rerouteNo="0" devices="tripinfo_SN_58" vType="car" speedFactor="0.87" vaporized=""/>
    <tripinfo id="EW_97" depart="97.00" departLane="4i_0" departPos="4.10" departSpeed="0.00" departDelay="0.00" arrival="196.00" arrivalLane="1o_0" arrivalPos="492.80" arrivalSpeed="12.25" duration="99.00" routeLength="990.53" waitingTime="5.00" waitingCount="1" stopTime="0.00" timeLoss="34.77" rerouteNo="0" devices="tripinfo_EW_97" vType="car" speedFactor="1.10" vaporized=""/>
    <tripinfo id="NS_114" depart="116.00" departLane="2i_0" departPos="4.10" departSpeed="0.00" departDelay="2.00" arrival="197.00" arrivalLane="3o_0" arrivalPos="492.80" arrivalSpeed="10.92" duration="81.00" routeLength="995.70" waitingTime="0.00" waitingCount="0" stopTime="0.00" timeLoss="9.68" rerouteNo="0" devices="tripinfo_NS_114" vType="car" speedFactor="1.00" vaporized=""/>
    <tripinfo id="EW_102" depart="102.00" departLane="4i_0" departPos="4.10" departSpeed="0.00" departDelay="0.00" arrival="212.00" arrivalLane="2o_0" arrivalPos="492.80" arrivalSpeed="11.70" duration="110.00" routeLength="995.70" waitingTime="23.00" waitingCount="2" stopTime="0.00" timeLoss="45.23" rerouteNo="0" devices="tripinfo_EW_102" vType="car" speedFactor="1.09" vaporized=""/>
    <tripinfo id="NS_141" depart="141.00" departLane="2i_0" departPos="4.10" departSpeed="0.00" departDelay="0.00" arrival="213.00" arrivalLane="4o_0" arrivalPos="492.80" arrivalSpeed="12.95" duration="72.00" routeLength="990.53" waitingTime="1.00" waitingCount="1" stopTime="0.00" timeLoss="11.05" rerouteNo="0" devices="tripinfo_NS_141" vType="car" speedFactor="1.17" vaporized=""/>
    <tripinfo id="SN_80" depart="80.00" departLane="3i_0" departPos="4.10" departSpeed="0.00" departDelay="0.00" arrival="217.00" arrivalLane="4o_0" arrivalPos="492.80" arrivalSpeed="11.98" duration="137.00" routeLength="995.90" waitingTime="33.00" waitingCount="4" stopTime="0.00" timeLoss="76.93" rerouteNo="0" devices="tripinfo_SN_80" vType="car" speedFactor="1.18" vaporized=""/>
    <tripinfo id="SN_63" depart="63.00" departLane="3i_0" departPos="10.10" departSpeed="0.00" departDelay="0.00" arrival="220.00" arrivalLane="1o_0" arrivalPos="492.80" arrivalSpeed="10.17" duration="157.00" routeLength="989.70" waitingTime="36.00" waitingCount="4" stopTime="0.00" timeLoss="83.06" rerouteNo="0" devices="tripinfo_SN_63" vType="truck" speedFactor="0.96" vaporized=""/>
    <tripinfo id="EW_105" depart="105.00" departLane="4i_0" departPos="4.10" departSpeed="0.00" departDelay="0.00" arrival="221.00" arrivalLane="3o_0" arrivalPos="492.80" arrivalSpeed="10.85" duration="116.00" routeLength="995.90" waitingTime="22.00" waitingCount="3" stopTime="0.00" timeLoss="48.41" rerouteNo="0" devices="tripinfo_EW_105" vType="car" speedFactor="1.04" vaporized=""/>
    <tripinfo id="SN_69" depart="69.00" departLane="3i_0" departPos="4.10" departSpeed="0.00" departDelay="0.00" arrival="223.00" arrivalLane="2o_0" arrivalPos="492.80" arrivalSpeed="9.39" duration="154.00" routeLength="990.53" waitingTime="32.00" waitingCount="4" stopTime="0.00" timeLoss="79.44" rerouteNo="0" devices="tripinfo_SN_69" vType="car" speedFactor="0.95" vaporized=""/>
    <tripinfo id="EW_114" depart="114.00" departLane="4i_0" departPos="4.10" departSpeed="0.00" departDelay="0.00" arrival="225.00" arrivalLane="2o_0" arrivalPos="492.80" arrivalSpeed="11.80" duration="111.00" routeLength="995.70" waitingTime="17.00" waitingCount="1" stopTime="0.00" timeLoss="45.31" rerouteNo="0" devices="tripinfo_EW_114" vType="car" speedFactor="1.09" vaporized=""/>
    <tripinfo id="NS_143" depart="144.00" departLane="2i_0" departPos="4.10" departSpeed="0.00" departDelay="1.00" arrival="227.00" arrivalLane="3o_0" arrivalPos="492.80" arrivalSpeed="11.89" duration="83.00" routeLength="995.70" waitingTime="3.00" waitingCount="2" stopTime="0.00" timeLoss="17.96" rerouteNo="0" devices="tripinfo_NS_143" vType="car" speedFactor="1.10" vaporized=""/>
    <tripinfo id="SN_90" depart="90.00" departLane="3i_0" departPos="4.10" departSpeed="0.00" departDelay="0.00" arrival="231.00" arrivalLane="2o_0" arrivalPos="492.80" arrivalSpeed="10.71" duration="141.00" routeLength="990.53" waitingTime="27.00" waitingCount="3" stopTime="0.00" timeLoss="68.46" rerouteNo="0" devices="tripinfo_SN_90" vType="car" speedFactor="0.97" vaporized=""/>
    <tripinfo id="WE_143" depart="143.00" departLane="1i_0" departPos="10.10" departSpeed="0.00" departDelay="0.00" arrival="231.00" arrivalLane="4o_0" arrivalPos="492.80" arrivalSpeed="10.86" duration="88.00" routeLength="989.70" waitingTime="0.00" waitingCount="0" stopTime="0.00" timeLoss="17.90" rerouteNo="0" devices="tripinfo_WE_143" vType="truck" speedFactor="1.01" vaporized=""/>
    <tripinfo id="SN_100" depart="103.00" departLane="3i_0" departPos="4.10" departSpeed="0.00" departDelay="3.00" arrival="234.00" arrivalLane="2o_0" arrivalPos="492.80" arrivalSpeed="9.68" duration="131.00" routeLength="990.53" waitingTime="24.00" waitingCount="2" stopTime="0.00" timeLoss="56.78" rerouteNo="0" devices="tripinfo_SN_100" vType="car" speedFactor="0.96" vaporized=""/>
    <tripinfo id="EW_124" depart="124.00" departLane="4i_0" departPos="4.10" departSpeed="0.00" departDelay="0.00" arrival="235.00" arrivalLane="1o_0" arrivalPos="492.80" arrivalSpeed="9.61" duration="111.00" routeLength="990.53" waitingTime="11.00" waitingCount="1" stopTime="0.00" timeLoss="32.41" rerouteNo="0" devices="tripinfo_EW_124" vType="car" speedFactor="0.90" vaporized=""/>
    <tripinfo id="NS_155" depart="155.00" departLane="2i_0" departPos="4.10" departSpeed="0.00" departDelay="0.00" arrival="237.00" arrivalLane="1o_0" arrivalPos="492.80" arrivalSpeed="11.90" duration="82.00" routeLength="995.90" waitingTime="0.00" waitingCount="0" stopTime="0.00" timeLoss="15.87" rerouteNo="0" devices="tripinfo_NS_155" vType="car" speedFactor="1.08" vaporized=""/>
    <tripinfo id="WE_155" depart="155.00" departLane="1i_0" departPos="4.10" departSpeed="0.00" departDelay="0.00" arrival="240.00" arrivalLane="2o_0" arrivalPos="492.80" arrivalSpeed="10.51" duration="85.00" routeLength="995.90" waitingTime="0.00" waitingCount="0" stopTime="0.00" timeLoss="12.00" rerouteNo="0" devices="tripinfo_WE_155" vType="car" speedFactor="0.97" vaporized=""/>
    <tripinfo id="NS_161" depart="161.00" departLane="2i_0" departPos="4.10" departSpeed="0.00" departDelay="0.00" arrival="240.00" arrivalLane="1o_0" arrivalPos="492.80" arrivalSpeed="11.04" duration="79.00" routeLength="995.90" waitingTime="0.00" waitingCount="0" stopTime="0.00" timeLoss="8.67" rerouteNo="0" devices="tripinfo_NS_161" vType="car" speedFactor="1.02" vaporized=""/>
    <tripinfo id="EW_129" depart="129.00" departLane="4i_0" departPos="4.10" departSpeed="0.00" departDelay="0.00" arrival="243.00" arrivalLane="3o_0" arrivalPos="492.80" arrivalSpeed="8.67" duration="114.00" routeLength="995.90" waitingTime="6.00" waitingCount="1" stopTime="0.00" timeLoss="33.22" rerouteNo="0" devices="tripinfo_EW_129" vType="car" speedFactor="0.88" vaporized=""/>
    <tripinfo id="SN_146" depart="146.00" departLane="3i_0" departPos="10.10" departSpeed="0.00" departDelay="0.00" arrival="249.00" arrivalLane="4o_0" arrivalPos="492.80" arrivalSpeed="10.94" duration="103.00" routeLength="989.90" waitingTime="9.00" waitingCount="2" stopTime="0.00" timeLoss="32.44" rerouteNo="0" devices="tripinfo_SN_146" vType="truck" speedFactor="1.00" vaporized=""/>
    <tripinfo id="SN_149" depart="150.00" departLane="3i_0" departPos="4.10" departSpeed="0.00" departDelay="1.00" arrival="254.00" arrivalLane="4o_0" arrivalPos="492.80" arrivalSpeed="12.16" duration="104.00" routeLength="995.90" waitingTime="13.00" waitingCount="3" stopTime="0.00" timeLoss="41.69" rerouteNo="0" devices="tripinfo_SN_149" vType="car" speedFactor="1.14" vaporized=""/>
    <tripinfo id="EW_135" depart="135.00" departLane="4i_0" departPos="4.10" departSpeed="0.00" departDelay="0.00" arrival="256.00" arrivalLane="3o_0" arrivalPos="492.80" arrivalSpeed="8.70" duration="121.00" routeLength="995.90" waitingTime="6.00" waitingCount="2" stopTime="0.00" timeLoss="37.35" rerouteNo="0" devices="tripinfo_EW_135" vType="car" speedFactor="0.85" vaporized=""/>
    <tripinfo id="WE_181" depart="181.00" departLane="1i_0" departPos="4.10" departSpeed="0.00" departDelay="0.00" arrival="260.00" arrivalLane="2o_0" arrivalPos="492.80" arrivalSpeed="10.51" duration="79.00" routeLength="995.90" waitingTime="0.00" waitingCount="0" stopTime="0.00" timeLoss="9.59" rerouteNo="0" devices="tripinfo_WE_181" vType="car" speedFactor="1.02" vaporized=""/>
    <tripinfo id="WE_173" depart="173.00" departLane="1i_0" departPos="4.10" departSpeed="0.00" departDelay="0.00" arrival="262.00" arrivalLane="3o_0" arrivalPos="492.80" arrivalSpeed="9.76" duration="89.00" routeLength="990.53" waitingTime="0.00" waitingCount="0" stopTime="0.00" timeLoss="8.68" rerouteNo="0" devices="tripinfo_WE_173" vType="car" speedFactor="0.88" vaporized=""/>
    <tripinfo id="NS_169" depart="169.00" departLane="2i_0" departPos="10.10" departSpeed="0.00" departDelay="0.00" arrival="267.00" arrivalLane="3o_0" arrivalPos="492.80" arrivalSpeed="10.26" duration="98.00" routeLength="989.70" waitingTime="4.00" waitingCount="1" stopTime="0.00" timeLoss="25.50" rerouteNo="0" devices="tripinfo_NS_169" vType="truck" speedFactor="0.97" vaporized=""/>
    <tripinfo id="EW_139" depart="139.00" departLane="4i_0" departPos="4.10" departSpeed="0.00" departDelay="0.00" arrival="268.00" arrivalLane="1o_0" arrivalPos="492.80" arrivalSpeed="8.86" duration="129.00" routeLength="990.53" waitingTime="14.00" waitingCount="2" stopTime="0.00" timeLoss="46.27" rerouteNo="0" devices="tripinfo_EW_139" vType="car" speedFactor="0.85" vaporized=""/>
    <tripinfo id="EW_144" depart="146.00" departLane="4i_0" departPos="4.10" departSpeed="0.00" departDelay="2.00" arrival="270.00" arrivalLane="1o_0" arrivalPos="492.80" arrivalSpeed="9.98" duration="124.00" routeLength="990.53" waitingTime="12.00" waitingCount="2" stopTime="0.00" timeLoss="53.24" rerouteNo="0" devices="tripinfo_EW_144" vType="car" speedFactor="1.00" vaporized=""/>
    <tripinfo id="NS_177" depart="177.00" departLane="2i_0" departPos="10.10" departSpeed="0.00" departDelay="0.00" arrival="270.00" arrivalLane="3o_0" arrivalPos="492.80" arrivalSpeed="11.09" duration="93.00" routeLength="989.70" waitingTime="0.00" waitingCount="0" stopTime="0.00" timeLoss="23.33" rerouteNo="0" devices="tripinfo_NS_177" vType="truck" speedFactor="1.02" vaporized=""/>
    <tripinfo id="SN_151" depart="153.00" departLane="3i_0" departPos="4.10" departSpeed="0.00" departDelay="2.00" arrival="272.00" arrivalLane="2o_0" arrivalPos="492.80" arrivalSpeed="10.73" duration="119.00" routeLength="990.53" waitingTime="21.00" waitingCount="4" stopTime="0.00" timeLoss="49.76" rerouteNo="0" devices="tripinfo_SN_151" vType="car" speedFactor="1.02" vaporized=""/>
    <tripinfo id="NS_197" depart="197.00" departLane="2i_0" departPos="4.10" departSpeed="0.00" departDelay="0.00" arrival="275.00" arrivalLane="3o_0" arrivalPos="492.80" arrivalSpeed="10.82" duration="78.00" routeLength="995.70" waitingTime="0.00" waitingCount="0" stopTime="0.00" timeLoss="10.29" rerouteNo="0" devices="tripinfo_NS_197" vType="car" speedFactor="1.06" vaporized=""/>
    <tripinfo id="EW_157" depart="157.00" departLane="4i_0" departPos="4.10" departSpeed="0.00" departDelay="0.00" arrival="281.00" arrivalLane="1o_0" arrivalPos="492.80" arrivalSpeed="11.31" duration="124.00" routeLength="990.53" waitingTime="20.00" waitingCount="5" stopTime="0.00" timeLoss="60.36" rerouteNo="0" devices="tripinfo_EW_157" vType="car" speedFactor="1.12" vaporized=""/>
    <tripinfo id="EW_147" depart="148.00" departLane="4i_0" departPos="4.10" departSpeed="0.00" departDelay="1.00" arrival="282.00" arrivalLane="2o_0" arrivalPos="492.80" arrivalSpeed="9.34" duration="134.00" routeLength="995.70" waitingTime="17.00" waitingCount="4" stopTime="0.00" timeLoss="54.61" rerouteNo="0" devices="tripinfo_EW_147" vType="car" speedFactor="0.90" vaporized=""/>
    <tripinfo id="NS_202" depart="202.00" departLane="2i_0" departPos="4.10" departSpeed="0.00" departDelay="0.00" arrival="284.00" arrivalLane="3o_0" arrivalPos="492.80" arrivalSpeed="9.72" duration="82.00" routeLength="995.70" waitingTime="0.00" waitingCount="0" stopTime="0.00" timeLoss="9.74" rerouteNo="0" devices="tripinfo_NS_202" vType="car" speedFactor="0.98" vaporized=""/>
    <tripinfo id="SN_193" depart="193.00" departLane="3i_0" departPos="4.10" departSpeed="0.00" departDelay="0.00" arrival="288.00" arrivalLane="1o_0" arrivalPos="492.80" arrivalSpeed="10.11" duration="95.00" routeLength="995.70" waitingTime="10.00" waitingCount="2" stopTime="0.00" timeLoss="25.73" rerouteNo="0" devices="tripinfo_SN_193" vType="car" speedFactor="1.02" vaporized=""/>
    <tripinfo id="SN_198" depart="198.00" departLane="3i_0" departPos="4.10" departSpeed="0.00" departDelay="0.00" arrival="293.00" arrivalLane="4o_0" arrivalPos="492.80" arrivalSpeed="9.93" duration="95.00" routeLength="995.90" waitingTime="4.00" waitingCount="1" stopTime="0.00" timeLoss="20.75" rerouteNo="0" devices="tripinfo_SN_198" vType="car" speedFactor="0.96" vaporized=""/>
    <tripinfo id="EW_164" depart="164.00" departLane="4i_0" departPos="4.10" departSpeed="0.00" departDelay="0.00" arrival="295.00" arrivalLane="2o_0" arrivalPos="492.80" arrivalSpeed="10.01" duration="131.00" routeLength="995.70" waitingTime="17.00" waitingCount="4" stopTime="0.00" timeLoss="58.83" rerouteNo="0" devices="tripinfo_EW_164" vType="car" speedFactor="0.99" vaporized=""/>
    <tripinfo id="SN_208" depart="208.00" departLane="3i_0" departPos="4.10" departSpeed="0.00" departDelay="0.00" arrival="298.00" arrivalLane="1o_0" arrivalPos="492.80" arrivalSpeed="10.39" duration="90.00" routeLength="995.70" waitingTime="1.00" waitingCount="1" stopTime="0.00" timeLoss="17.87" rerouteNo="0" devices="tripinfo_SN_208" vType="car" speedFactor="0.98" vaporized=""/>
    <tripinfo id="EW_173" depart="173.00" departLane="4i_0" departPos="4.10" departSpeed="0.00" departDelay="0.00" arrival="301.00" arrivalLane="2o_0" arrivalPos="492.80" arrivalSpeed="9.14" duration="128.00" routeLength="995.70" waitingTime="12.00" waitingCount="3" stopTime="0.00" timeLoss="49.91" rerouteNo="0" devices="tripinfo_EW_173" vType="car" speedFactor="0.91" vaporized=""/>
    <tripinfo id="WE_221" depart="221.00" departLane="1i_0" departPos="4.10" departSpeed="0.00" departDelay="0.00" arrival="301.00" arrivalLane="3o_0" arrivalPos="492.80" arrivalSpeed="11.01" duration="80.00" routeLength="990.53" waitingTime="0.00" waitingCount="0" stopTime="0.00" timeLoss="9.08" rerouteNo="0" devices="tripinfo_WE_221" vType="car" speedFactor="1.00" vaporized=""/>
    <tripinfo id="WE_213" depart="213.00" departLane="1i_0" departPos="4.10" departSpeed="0.00" departDelay="0.00" arrival="303.00" arrivalLane="2o_0" arrivalPos="492.80" arrivalSpeed="11.16" duration="90.00" routeLength="995.90" waitingTime="1.00" waitingCount="1" stopTime="0.00" timeLoss="19.37" rerouteNo="0" devices="tripinfo_WE_213" vType="car" speedFactor="1.01" vaporized=""/>