<?xml version="1.0" encoding="UTF-8"?>

<!-- generated on 2024-05-05 17:11:00 by Eclipse SUMO sumo Version 1.19.0
<configuration xmlns:xsi="http://www.w3.org/2001/XMLSchema-instance" xsi:noNamespaceSchemaLocation="http://sumo.dlr.de/xsd/sumoConfiguration.xsd">

    <input>
        <net-file value="twoone.net.xml"/>
        <route-files value="route_gen.rou.xml"/>
    </input>

    <output>
        <tripinfo-output value="tripinfo_epi265.xml"/>
    </output>

    <report>
        <no-warnings value="true"/>
    </report>

    <traci_server>
        <remote-port value="37981"/>
    </traci_server>

</configuration>
-->

<tripinfos xmlns:xsi="http://www.w3.org/2001/XMLSchema-instance" xsi:noNamespaceSchemaLocation="http://sumo.dlr.de/xsd/tripinfo_file.xsd">
    <tripinfo id="WE_1" depart="1.00" departLane="1i_0" departPos="10.10" departSpeed="0.00" departDelay="0.00" arrival="83.00" arrivalLane="2o_0" arrivalPos="492.80" arrivalSpeed="11.04" duration="82.00" routeLength="989.90" waitingTime="0.00" waitingCount="0" stopTime="0.00" timeLoss="13.32" rerouteNo="0" devices="tripinfo_WE_1" vType="truck" speedFactor="1.03" vaporized=""/>
    <tripinfo id="EW_4" depart="4.00" departLane="4i_0" departPos="4.10" departSpeed="0.00" departDelay="0.00" arrival="85.00" arrivalLane="1o_0" arrivalPos="492.80" arrivalSpeed="11.01" duration="81.00" routeLength="990.53" waitingTime="1.00" waitingCount="1" stopTime="0.00" timeLoss="11.32" rerouteNo="0" devices="tripinfo_EW_4" vType="car" speedFactor="1.01" vaporized=""/>
    <tripinfo id="SN_3" depart="3.00" departLane="3i_0" departPos="10.10" departSpeed="0.00" departDelay="0.00" arrival="93.00" arrivalLane="1o_0" arrivalPos="492.80" arrivalSpeed="10.27" duration="90.00" routeLength="989.70" waitingTime="0.00" waitingCount="0" stopTime="0.00" timeLoss="17.51" rerouteNo="0" devices="tripinfo_SN_3" vType="truck" speedFactor="0.97" vaporized=""/>
    <tripinfo id="WE_17" depart="17.00" departLane="1i_0" departPos="4.10" departSpeed="0.00" departDelay="0.00" arrival="93.00" arrivalLane="3o_0" arrivalPos="492.80" arrivalSpeed="10.69" duration="76.00" routeLength="990.53" waitingTime="0.00" waitingCount="0" stopTime="0.00" timeLoss="7.45" rerouteNo="0" devices="tripinfo_WE_17" vType="car" speedFactor="1.03" vaporized=""/>
    <tripinfo id="SN_9" depart="9.00" departLane="3i_0" departPos="4.10" departSpeed="0.00" departDelay="0.00" arrival="96.00" arrivalLane="1o_0" arrivalPos="492.80" arrivalSpeed="11.84" duration="87.00" routeLength="995.70" waitingTime="0.00" waitingCount="0" stopTime="0.00" timeLoss="21.02" rerouteNo="0" devices="tripinfo_SN_9" vType="car" speedFactor="1.08" vaporized=""/>
    <tripinfo id="WE_22" depart="22.00" departLane="1i_0" departPos="4.10" departSpeed="0.00" departDelay="0.00" arrival="98.00" arrivalLane="3o_0" arrivalPos="492.80" arrivalSpeed="11.49" duration="76.00" routeLength="990.53" waitingTime="0.00" waitingCount="0" stopTime="0.00" timeLoss="8.07" rerouteNo="0" devices="tripinfo_WE_22" vType="car" speedFactor="1.05" vaporized=""/>
    <tripinfo id="SN_20" depart="20.00" departLane="3i_0" departPos="10.10" departSpeed="0.00" departDelay="0.00" arrival="108.00" arrivalLane="2o_0" arrivalPos="492.80" arrivalSpeed="9.71" duration="88.00" routeLength="984.53" waitingTime="0.00" waitingCount="0" stopTime="0.00" timeLoss="10.91" rerouteNo="0" devices="tripinfo_SN_20" vType="truck" speedFactor="0.92" vaporized=""/>
    <tripinfo id="EW_23" depart="23.00" departLane="4i_0" departPos="4.10" departSpeed="0.00" departDelay="0.00" arrival="112.00" arrivalLane="1o_0" arrivalPos="492.80" arrivalSpeed="9.75" duration="89.00" routeLength="990.53" waitingTime="0.00" waitingCount="0" stopTime="0.00" timeLoss="9.02" rerouteNo="0" devices="tripinfo_EW_23" vType="car" speedFactor="0.89" vaporized=""/>
    <tripinfo id="WE_24" depart="24.00" departLane="1i_0" departPos="4.10" departSpeed="0.00" departDelay="0.00" arrival="115.00" arrivalLane="4o_0" arrivalPos="492.80" arrivalSpeed="9.74" duration="91.00" routeLength="995.70" waitingTime="0.00" waitingCount="0" stopTime="0.00" timeLoss="15.22" rerouteNo="0" devices="tripinfo_WE_24" vType="car" speedFactor="0.94" vaporized=""/>
    <tripinfo id="NS_24" depart="24.00" departLane="2i_0" departPos="4.10" departSpeed="0.00" departDelay="0.00" arrival="115.00" arrivalLane="1o_0" arrivalPos="492.80" arrivalSpeed="8.97" duration="91.00" routeLength="995.90" waitingTime="0.00" waitingCount="0" stopTime="0.00" timeLoss="8.42" rerouteNo="0" devices="tripinfo_NS_24" vType="car" speedFactor="0.86" vaporized=""/>
    <tripinfo id="NS_32" depart="32.00" departLane="2i_0" departPos="4.10" departSpeed="0.00" departDelay="0.00" arrival="117.00" arrivalLane="4o_0" arrivalPos="492.80" arrivalSpeed="11.17" duration="85.00" routeLength="990.53" waitingTime="3.00" waitingCount="1" stopTime="0.00" timeLoss="17.18" rerouteNo="0" devices="tripinfo_NS_32" vType="car" speedFactor="1.05" vaporized=""/>
    <tripinfo id="WE_26" depart="27.00" departLane="1i_0" departPos="4.10" departSpeed="0.00" departDelay="1.00" arrival="118.00" arrivalLane="4o_0" arrivalPos="492.80" arrivalSpeed="12.09" duration="91.00" routeLength="995.70" waitingTime="1.00" waitingCount="1" stopTime="0.00" timeLoss="26.09" rerouteNo="0" devices="tripinfo_WE_26" vType="car" speedFactor="1.09" vaporized=""/>
    <tripinfo id="EW_26" depart="26.00" departLane="4i_0" departPos="10.10" departSpeed="0.00" departDelay="0.00" arrival="121.00" arrivalLane="3o_0" arrivalPos="492.80" arrivalSpeed="11.21" duration="95.00" routeLength="989.90" waitingTime="6.00" waitingCount="1" stopTime="0.00" timeLoss="25.39" rerouteNo="0" devices="tripinfo_EW_26" vType="truck" speedFactor="1.01" vaporized=""/>
    <tripinfo id="NS_45" depart="45.00" departLane="2i_0" departPos="4.10" departSpeed="0.00" departDelay="0.00" arrival="126.00" arrivalLane="3o_0" arrivalPos="492.80" arrivalSpeed="10.90" duration="81.00" routeLength="995.70" waitingTime="0.00" waitingCount="0" stopTime="0.00" timeLoss="9.59" rerouteNo="0" devices="tripinfo_NS_45" vType="car" speedFactor="0.99" vaporized=""/>
    <tripinfo id="SN_37" depart="37.00" departLane="3i_0" departPos="4.10" departSpeed="0.00" departDelay="0.00" arrival="128.00" arrivalLane="4o_0" arrivalPos="492.80" arrivalSpeed="12.31" duration="91.00" routeLength="995.90" waitingTime="13.00" waitingCount="1" stopTime="0.00" timeLoss="27.80" rerouteNo="0" devices="tripinfo_SN_37" vType="car" speedFactor="1.12" vaporized=""/>
    <tripinfo id="NS_47" depart="48.00" departLane="2i_0" departPos="4.10" departSpeed="0.00" departDelay="1.00" arrival="132.00" arrivalLane="1o_0" arrivalPos="492.80" arrivalSpeed="10.09" duration="84.00" routeLength="995.90" waitingTime="0.00" waitingCount="0" stopTime="0.00" timeLoss="7.22" rerouteNo="0" devices="tripinfo_NS_47" vType="car" speedFactor="0.93" vaporized=""/>
    <tripinfo id="NS_60" depart="60.00" departLane="2i_0" departPos="4.10" departSpeed="0.00" departDelay="0.00" arrival="133.00" arrivalLane="1o_0" arrivalPos="492.80" arrivalSpeed="11.62" duration="73.00" routeLength="995.90" waitingTime="0.00" waitingCount="0" stopTime="0.00" timeLoss="11.99" rerouteNo="0" devices="tripinfo_NS_60" vType="car" speedFactor="1.16" vaporized=""/>
    <tripinfo id="EW_52" depart="52.00" departLane="4i_0" departPos="4.10" departSpeed="0.00" departDelay="0.00" arrival="136.00" arrivalLane="3o_0" arrivalPos="492.80" arrivalSpeed="9.52" duration="84.00" routeLength="995.90" waitingTime="0.00" waitingCount="0" stopTime="0.00" timeLoss="8.55" rerouteNo="0" devices="tripinfo_EW_52" vType="car" speedFactor="0.94" vaporized=""/>
    <tripinfo id="WE_51" depart="51.00" departLane="1i_0" departPos="4.10" departSpeed="0.00" departDelay="0.00" arrival="139.00" arrivalLane="4o_0" arrivalPos="492.80" arrivalSpeed="9.57" duration="88.00" routeLength="995.70" waitingTime="0.00" waitingCount="0" stopTime="0.00" timeLoss="12.94" rerouteNo="0" devices="tripinfo_WE_51" vType="car" speedFactor="0.94" vaporized=""/>
    <tripinfo id="SN_47" depart="47.00" departLane="3i_0" departPos="4.10" departSpeed="0.00" departDelay="0.00" arrival="143.00" arrivalLane="2o_0" arrivalPos="492.80" arrivalSpeed="9.27" duration="96.00" routeLength="990.53" waitingTime="0.00" waitingCount="0" stopTime="0.00" timeLoss="15.68" rerouteNo="0" devices="tripinfo_SN_47" vType="car" speedFactor="0.88" vaporized=""/>
    <tripinfo id="WE_61" depart="61.00" departLane="1i_0" departPos="4.10" departSpeed="0.00" departDelay="0.00" arrival="145.00" arrivalLane="2o_0" arrivalPos="492.80" arrivalSpeed="10.80" duration="84.00" routeLength="995.90" waitingTime="1.00" waitingCount="1" stopTime="0.00" timeLoss="14.07" rerouteNo="0" devices="tripinfo_WE_61" vType="car" speedFactor="1.02" vaporized=""/>
    <tripinfo id="EW_65" depart="65.00" departLane="4i_0" departPos="4.10" departSpeed="0.00" departDelay="0.00" arrival="147.00" arrivalLane="1o_0" arrivalPos="492.80" arrivalSpeed="10.35" duration="82.00" routeLength="990.53" waitingTime="0.00" waitingCount="0" stopTime="0.00" timeLoss="12.20" rerouteNo="0" devices="tripinfo_EW_65" vType="car" speedFactor="1.01" vaporized=""/>
    <tripinfo id="WE_66" depart="66.00" departLane="1i_0" departPos="4.10" departSpeed="0.00" departDelay="0.00" arrival="149.00" arrivalLane="4o_0" arrivalPos="492.80" arrivalSpeed="9.54" duration="83.00" routeLength="995.70" waitingTime="0.00" waitingCount="0" stopTime="0.00" timeLoss="10.49" rerouteNo="0" devices="tripinfo_WE_66" vType="car" speedFactor="0.97" vaporized=""/>
    <tripinfo id="SN_75" depart="78.00" departLane="3i_0" departPos="4.10" departSpeed="0.00" departDelay="3.00" arrival="157.00" arrivalLane="4o_0" arrivalPos="492.80" arrivalSpeed="12.98" duration="79.00" routeLength="995.90" waitingTime="0.00" waitingCount="0" stopTime="0.00" timeLoss="18.72" rerouteNo="0" devices="tripinfo_SN_75" vType="car" speedFactor="1.18" vaporized=""/>
    <tripinfo id="SN_69" depart="69.00" departLane="3i_0" departPos="4.10" departSpeed="0.00" departDelay="0.00" arrival="158.00" arrivalLane="2o_0" arrivalPos="492.80" arrivalSpeed="9.63" duration="89.00" routeLength="990.53" waitingTime="0.00" waitingCount="0" stopTime="0.00" timeLoss="9.73" rerouteNo="0" devices="tripinfo_SN_69" vType="car" speedFactor="0.89" vaporized=""/>
    <tripinfo id="EW_70" depart="70.00" departLane="4i_0" departPos="4.10" departSpeed="0.00" departDelay="0.00" arrival="159.00" arrivalLane="1o_0" arrivalPos="492.80" arrivalSpeed="9.08" duration="89.00" routeLength="990.53" waitingTime="0.00" waitingCount="0" stopTime="0.00" timeLoss="8.04" rerouteNo="0" devices="tripinfo_EW_70" vType="car" speedFactor="0.87" vaporized=""/>
    <tripinfo id="SN_70" depart="72.00" departLane="3i_0" departPos="4.10" departSpeed="0.00" departDelay="2.00" arrival="160.00" arrivalLane="2o_0" arrivalPos="492.80" arrivalSpeed="9.27" duration="88.00" routeLength="990.53" waitingTime="0.00" waitingCount="0" stopTime="0.00" timeLoss="13.48" rerouteNo="0" devices="tripinfo_SN_70" vType="car" speedFactor="0.95" vaporized=""/>
    <tripinfo id="EW_79" depart="79.00" departLane="4i_0" departPos="4.10" departSpeed="0.00" departDelay="0.00" arrival="161.00" arrivalLane="1o_0" arrivalPos="492.80" arrivalSpeed="12.05" duration="82.00" routeLength="990.53" waitingTime="0.00" waitingCount="0" stopTime="0.00" timeLoss="21.48" rerouteNo="0" devices="tripinfo_EW_79" vType="car" speedFactor="1.17" vaporized=""/>
    <tripinfo id="NS_78" depart="78.00" departLane="2i_0" departPos="4.10" departSpeed="0.00" departDelay="0.00" arrival="163.00" arrivalLane="1o_0" arrivalPos="492.80" arrivalSpeed="12.13" duration="85.00" routeLength="995.90" waitingTime="1.00" waitingCount="1" stopTime="0.00" timeLoss="22.90" rerouteNo="0" devices="tripinfo_NS_78" vType="car" speedFactor="1.15" vaporized=""/>
    <tripinfo id="NS_70" depart="70.00" departLane="2i_0" departPos="4.10" departSpeed="0.00" departDelay="0.00" arrival="164.00" arrivalLane="3o_0" arrivalPos="492.80" arrivalSpeed="9.57" duration="94.00" routeLength="995.70" waitingTime="2.00" waitingCount="1" stopTime="0.00" timeLoss="16.87" rerouteNo="0" devices="tripinfo_NS_70" vType="car" speedFactor="0.92" vaporized=""/>
    <tripinfo id="NS_87" depart="87.00" departLane="2i_0" departPos="4.10" departSpeed="0.00" departDelay="0.00" arrival="166.00" arrivalLane="1o_0" arrivalPos="492.80" arrivalSpeed="10.99" duration="79.00" routeLength="995.90" waitingTime="0.00" waitingCount="0" stopTime="0.00" timeLoss="9.17" rerouteNo="0" devices="tripinfo_NS_87" vType="car" speedFactor="1.02" vaporized=""/>
    <tripinfo id="WE_70" depart="70.00" departLane="1i_0" departPos="4.10" departSpeed="0.00" departDelay="0.00" arrival="167.00" arrivalLane="2o_0" arrivalPos="492.80" arrivalSpeed="8.07" duration="97.00" routeLength="995.90" waitingTime="0.00" waitingCount="0" stopTime="0.00" timeLoss="11.19" rerouteNo="0" devices="tripinfo_WE_70" vType="car" speedFactor="0.83" vaporized=""/>
    <tripinfo id="WE_74" depart="74.00" departLane="1i_0" departPos="4.10" departSpeed="0.00" departDelay="0.00" arrival="168.00" arrivalLane="3o_0" arrivalPos="492.80" arrivalSpeed="9.05" duration="94.00" routeLength="990.53" waitingTime="4.00" waitingCount="1" stopTime="0.00" timeLoss="18.16" rerouteNo="0" devices="tripinfo_WE_74" vType="car" speedFactor="0.93" vaporized=""/>
    <tripinfo id="SN_73" depart="75.00" departLane="3i_0" departPos="4.10" departSpeed="0.00" departDelay="2.00" arrival="169.00" arrivalLane="2o_0" arrivalPos="492.80" arrivalSpeed="11.86" duration="94.00" routeLength="990.53" waitingTime="0.00" waitingCount="0" stopTime="0.00" timeLoss="31.38" rerouteNo="0" devices="tripinfo_SN_73" vType="car" speedFactor="1.13" vaporized=""/>
    <tripinfo id="NS_90" depart="90.00" departLane="2i_0" departPos="4.10" departSpeed="0.00" departDelay="0.00" arrival="169.00" arrivalLane="3o_0" arrivalPos="492.80" arrivalSpeed="11.44" duration="79.00" routeLength="995.70" waitingTime="0.00" waitingCount="0" stopTime="0.00" timeLoss="19.22" rerouteNo="0" devices="tripinfo_NS_90" vType="car" speedFactor="1.18" vaporized=""/>
    <tripinfo id="SN_78" depart="80.00" departLane="3i_0" departPos="4.10" departSpeed="0.00" departDelay="2.00" arrival="170.00" arrivalLane="1o_0" arrivalPos="492.80" arrivalSpeed="10.50" duration="90.00" routeLength="995.70" waitingTime="3.00" waitingCount="2" stopTime="0.00" timeLoss="19.18" rerouteNo="0" devices="tripinfo_SN_78" vType="car" speedFactor="1.01" vaporized=""/>
    <tripinfo id="WE_82" depart="82.00" departLane="1i_0" departPos="10.10" departSpeed="0.00" departDelay="0.00" arrival="176.00" arrivalLane="4o_0" arrivalPos="492.80" arrivalSpeed="10.74" duration="94.00" routeLength="989.70" waitingTime="1.00" waitingCount="1" stopTime="0.00" timeLoss="23.27" rerouteNo="0" devices="tripinfo_WE_82" vType="truck" speedFactor="1.00" vaporized=""/>
    <tripinfo id="EW_88" depart="88.00" departLane="4i_0" departPos="4.10" departSpeed="0.00" departDelay="0.00" arrival="181.00" arrivalLane="3o_0" arrivalPos="492.80" arrivalSpeed="9.94" duration="93.00" routeLength="995.90" waitingTime="3.00" waitingCount="2" stopTime="0.00" timeLoss="20.49" rerouteNo="0" devices="tripinfo_EW_88" vType="car" speedFactor="0.97" vaporized=""/>
    <tripinfo id="NS_94" depart="94.00" departLane="2i_0" departPos="4.10" departSpeed="0.00" departDelay="0.00" arrival="181.00" arrivalLane="1o_0" arrivalPos="492.80" arrivalSpeed="10.20" duration="87.00" routeLength="995.90" waitingTime="1.00" waitingCount="1" stopTime="0.00" timeLoss="17.90" rerouteNo="0" devices="tripinfo_NS_94" vType="car" speedFactor="1.03" vaporized=""/>
    <tripinfo id="EW_91" depart="91.00" departLane="4i_0" departPos="4.10" departSpeed="0.00" departDelay="0.00" arrival="182.00" arrivalLane="1o_0" arrivalPos="492.80" arrivalSpeed="12.13" duration="91.00" routeLength="990.53" waitingTime="3.00" waitingCount="2" stopTime="0.00" timeLoss="27.31" rerouteNo="0" devices="tripinfo_EW_91" vType="car" speedFactor="1.10" vaporized=""/>
    <tripinfo id="NS_104" depart="104.00" departLane="2i_0" departPos="4.10" departSpeed="0.00" departDelay="0.00" arrival="187.00" arrivalLane="1o_0" arrivalPos="492.80" arrivalSpeed="10.27" duration="83.00" routeLength="995.90" waitingTime="0.00" waitingCount="0" stopTime="0.00" timeLoss="14.48" rerouteNo="0" devices="tripinfo_NS_104" vType="car" speedFactor="1.04" vaporized=""/>
    <tripinfo id="SN_104" depart="104.00" departLane="3i_0" departPos="10.10" departSpeed="0.00" departDelay="0.00" arrival="188.00" arrivalLane="2o_0" arrivalPos="492.80" arrivalSpeed="11.05" duration="84.00" routeLength="984.53" waitingTime="0.00" waitingCount="0" stopTime="0.00" timeLoss="15.01" rerouteNo="0" devices="tripinfo_SN_104" vType="truck" speedFactor="1.02" vaporized=""/>
    <tripinfo id="WE_94" depart="96.00" departLane="1i_0" departPos="4.10" departSpeed="0.00" departDelay="2.00" arrival="189.00" arrivalLane="3o_0" arrivalPos="492.80" arrivalSpeed="9.57" duration="93.00" routeLength="990.53" waitingTime="1.00" waitingCount="1" stopTime="0.00" timeLoss="15.01" rerouteNo="0" devices="tripinfo_WE_94" vType="car" speedFactor="0.90" vaporized=""/>
    <tripinfo id="EW_107" depart="107.00" departLane="4i_0" departPos="4.10" departSpeed="0.00" departDelay="0.00" arrival="190.00" arrivalLane="2o_0" arrivalPos="492.80" arrivalSpeed="11.01" duration="83.00" routeLength="995.70" waitingTime="1.00" waitingCount="1" stopTime="0.00" timeLoss="18.11" rerouteNo="0" devices="tripinfo_EW_107" vType="car" speedFactor="1.09" vaporized=""/>
    <tripinfo id="NS_98" depart="98.00" departLane="2i_0" departPos="4.10" departSpeed="0.00" departDelay="0.00" arrival="191.00" arrivalLane="3o_0" arrivalPos="492.80" arrivalSpeed="11.13" duration="93.00" routeLength="995.70" waitingTime="0.00" waitingCount="0" stopTime="0.00" timeLoss="28.02" rerouteNo="0" devices="tripinfo_NS_98" vType="car" speedFactor="1.09" vaporized=""/>
    <tripinfo id="EW_95" depart="95.00" departLane="4i_0" departPos="4.10" departSpeed="0.00" departDelay="0.00" arrival="194.00" arrivalLane="1o_0" arrivalPos="492.80" arrivalSpeed="9.93" duration="99.00" routeLength="990.53" waitingTime="3.00" waitingCount="2" stopTime="0.00" timeLoss="25.22" rerouteNo="0" devices="tripinfo_EW_95" vType="car" speedFactor="0.96" vaporized=""/>
    <tripinfo id="WE_111" depart="112.00" departLane="1i_0" departPos="4.10" departSpeed="0.00" departDelay="1.00" arrival="198.00" arrivalLane="2o_0" arrivalPos="492.80" arrivalSpeed="10.39" duration="86.00" routeLength="995.90" waitingTime="1.00" waitingCount="1" stopTime="0.00" timeLoss="14.52" rerouteNo="0" devices="tripinfo_WE_111" vType="car" speedFactor="1.00" vaporized=""/>
    <tripinfo id="WE_113" depart="116.00" departLane="1i_0" departPos="10.10" departSpeed="0.00" departDelay="3.00" arrival="209.00" arrivalLane="4o_0" arrivalPos="492.80" arrivalSpeed="10.39" duration="93.00" routeLength="989.70" waitingTime="1.00" waitingCount="1" stopTime="0.00" timeLoss="18.91" rerouteNo="0" devices="tripinfo_WE_113" vType="truck" speedFactor="0.95" vaporized=""/>
    <tripinfo id="NS_115" depart="115.00" departLane="2i_0" departPos="4.10" departSpeed="0.00" departDelay="0.00" arrival="209.00" arrivalLane="3o_0" arrivalPos="492.80" arrivalSpeed="9.11" duration="94.00" routeLength="995.70" waitingTime="0.00" waitingCount="0" stopTime="0.00" timeLoss="10.47" rerouteNo="0" devices="tripinfo_NS_115" vType="car" speedFactor="0.85" vaporized=""/>
    <tripinfo id="EW_115" depart="118.00" departLane="4i_0" departPos="4.10" departSpeed="0.00" departDelay="3.00" arrival="211.00" arrivalLane="2o_0" arrivalPos="492.80" arrivalSpeed="9.65" duration="93.00" routeLength="995.70" waitingTime="0.00" waitingCount="0" stopTime="0.00" timeLoss="11.56" rerouteNo="0" devices="tripinfo_EW_115" vType="car" speedFactor="0.88" vaporized=""/>
    <tripinfo id="WE_126" depart="126.00" departLane="1i_0" departPos="4.10" departSpeed="0.00" departDelay="0.00" arrival="211.00" arrivalLane="4o_0" arrivalPos="492.80" arrivalSpeed="12.45" duration="85.00" routeLength="995.70" waitingTime="0.00" waitingCount="0" stopTime="0.00" timeLoss="24.35" rerouteNo="0" devices="tripinfo_WE_126" vType="car" speedFactor="1.17" vaporized=""/>
    <tripinfo id="SN_131" depart="131.00" departLane="3i_0" departPos="4.10" departSpeed="0.00" departDelay="0.00" arrival="213.00" arrivalLane="4o_0" arrivalPos="492.80" arrivalSpeed="11.62" duration="82.00" routeLength="995.90" waitingTime="0.00" waitingCount="0" stopTime="0.00" timeLoss="17.41" rerouteNo="0" devices="tripinfo_SN_131" vType="car" speedFactor="1.10" vaporized=""/>
    <tripinfo id="NS_135" depart="135.00" departLane="2i_0" departPos="4.10" departSpeed="0.00" departDelay="0.00" arrival="221.00" arrivalLane="3o_0" arrivalPos="492.80" arrivalSpeed="10.98" duration="86.00" routeLength="995.70" waitingTime="0.00" waitingCount="0" stopTime="0.00" timeLoss="14.27" rerouteNo="0" devices="tripinfo_NS_135" vType="car" speedFactor="1.00" vaporized=""/>
    <tripinfo id="EW_140" depart="140.00" departLane="4i_0" departPos="4.10" departSpeed="0.00" departDelay="0.00" arrival="225.00" arrivalLane="3o_0" arrivalPos="492.80" arrivalSpeed="11.03" duration="85.00" routeLength="995.90" waitingTime="0.00" waitingCount="0" stopTime="0.00" timeLoss="15.42" rerouteNo="0" devices="tripinfo_EW_140" vType="car" speedFactor="1.02" vaporized=""/>
    <tripinfo id="EW_120" depart="121.00" departLane="4i_0" departPos="4.10" departSpeed="0.00" departDelay="1.00" arrival="226.00" arrivalLane="2o_0" arrivalPos="492.80" arrivalSpeed="8.80" duration="105.00" routeLength="995.70" waitingTime="7.00" waitingCount="1" stopTime="0.00" timeLoss="22.38" rerouteNo="0" devices="tripinfo_EW_120" vType="car" speedFactor="0.85" vaporized=""/>
    <tripinfo id="NS_139" depart="139.00" departLane="2i_0" departPos="4.10" departSpeed="0.00" departDelay="0.00" arrival="227.00" arrivalLane="4o_0" arrivalPos="492.80" arrivalSpeed="8.80" duration="88.00" routeLength="990.53" waitingTime="0.00" waitingCount="0" stopTime="0.00" timeLoss="9.23" rerouteNo="0" devices="tripinfo_NS_139" vType="car" speedFactor="0.90" vaporized=""/>
    <tripinfo id="EW_129" depart="129.00" departLane="4i_0" departPos="4.10" departSpeed="0.00" departDelay="0.00" arrival="228.00" arrivalLane="2o_0" arrivalPos="492.80" arrivalSpeed="11.08" duration="99.00" routeLength="995.70" waitingTime="6.00" waitingCount="1" stopTime="0.00" timeLoss="29.16" rerouteNo="0" devices="tripinfo_EW_129" vType="car" speedFactor="1.02" vaporized=""/>
    <tripinfo id="WE_140" depart="140.00" departLane="1i_0" departPos="4.10" departSpeed="0.00" departDelay="0.00" arrival="229.00" arrivalLane="4o_0" arrivalPos="492.80" arrivalSpeed="12.41" duration="89.00" routeLength="995.70" waitingTime="1.00" waitingCount="1" stopTime="0.00" timeLoss="26.51" rerouteNo="0" devices="tripinfo_WE_140" vType="car" speedFactor="1.14" vaporized=""/>
    <tripinfo id="WE_135" depart="135.00" departLane="1i_0" departPos="4.10" departSpeed="0.00" departDelay="0.00" arrival="230.00" arrivalLane="2o_0" arrivalPos="492.80" arrivalSpeed="10.26" duration="95.00" routeLength="995.90" waitingTime="4.00" waitingCount="1" stopTime="0.00" timeLoss="24.15" rerouteNo="0" devices="tripinfo_WE_135" vType="car" speedFactor="1.00" vaporized=""/>
    <tripinfo id="WE_149" depart="149.00" departLane="1i_0" departPos="4.10" departSpeed="0.00" departDelay="0.00" arrival="231.00" arrivalLane="4o_0" arrivalPos="492.80" arrivalSpeed="10.77" duration="82.00" routeLength="995.70" waitingTime="0.00" waitingCount="0" stopTime="0.00" timeLoss="16.00" rerouteNo="0" devices="tripinfo_WE_149" vType="car" speedFactor="1.08" vaporized=""/>
    <tripinfo id="SN_152" depart="152.00" departLane="3i_0" departPos="4.10" departSpeed="0.00" departDelay="0.00" arrival="231.00" arrivalLane="1o_0" arrivalPos="492.80" arrivalSpeed="12.36" duration="79.00" routeLength="995.70" waitingTime="0.00" waitingCount="0" stopTime="0.00" timeLoss="15.18" rerouteNo="0" devices="tripinfo_SN_152" vType="car" speedFactor="1.12" vaporized=""/>
    <tripinfo id="NS_148" depart="148.00" departLane="2i_0" departPos="4.10" departSpeed="0.00" departDelay="0.00" arrival="232.00" arrivalLane="3o_0" arrivalPos="492.80" arrivalSpeed="9.60" duration="84.00" routeLength="995.70" waitingTime="0.00" waitingCount="0" stopTime="0.00" timeLoss="10.42" rerouteNo="0" devices="tripinfo_NS_148" vType="car" speedFactor="0.97" vaporized=""/>
    <tripinfo id="SN_157" depart="157.00" departLane="3i_0" departPos="4.10" departSpeed="0.00" departDelay="0.00" arrival="239.00" arrivalLane="2o_0" arrivalPos="492.80" arrivalSpeed="10.66" duration="82.00" routeLength="990.53" waitingTime="1.00" waitingCount="1" stopTime="0.00" timeLoss="12.38" rerouteNo="0" devices="tripinfo_SN_157" vType="car" speedFactor="1.02" vaporized=""/>
    <tripinfo id="WE_163" depart="163.00" departLane="1i_0" departPos="4.10" departSpeed="0.00" departDelay="0.00" arrival="245.00" arrivalLane="4o_0" arrivalPos="492.80" arrivalSpeed="10.10" duration="82.00" routeLength="995.70" waitingTime="0.00" waitingCount="0" stopTime="0.00" timeLoss="9.96" rerouteNo="0" devices="tripinfo_WE_163" vType="car" speedFactor="0.99" vaporized=""/>
    <tripinfo id="WE_164" depart="166.00" departLane="1i_0" departPos="4.10" departSpeed="0.00" departDelay="2.00" arrival="250.00" arrivalLane="2o_0" arrivalPos="492.80" arrivalSpeed="10.40" duration="84.00" routeLength="995.90" waitingTime="0.00" waitingCount="0" stopTime="0.00" timeLoss="8.60" rerouteNo="0" devices="tripinfo_WE_164" vType="car" speedFactor="0.94" vaporized=""/>
    <tripinfo id="SN_172" depart="172.00" departLane="3i_0" departPos="4.10" departSpeed="0.00" departDelay="0.00" arrival="259.00" arrivalLane="2o_0" arrivalPos="492.80" arrivalSpeed="8.85" duration="87.00" routeLength="990.53" waitingTime="0.00" waitingCount="0" stopTime="0.00" timeLoss="8.83" rerouteNo="0" devices="tripinfo_SN_172" vType="car" speedFactor="0.91" vaporized=""/>
    <tripinfo id="EW_171" depart="171.00" departLane="4i_0" departPos="4.10" departSpeed="0.00" departDelay="0.00" arrival="260.00" arrivalLane="1o_0" arrivalPos="492.80" arrivalSpeed="9.44" duration="89.00" routeLength="990.53" waitingTime="0.00" waitingCount="0" stopTime="0.00" timeLoss="8.63" rerouteNo="0" devices="tripinfo_EW_171" vType="car" speedFactor="0.88" vaporized=""/>
    <tripinfo id="SN_185" depart="185.00" departLane="3i_0" departPos="4.10" departSpeed="0.00" departDelay="0.00" arrival="263.00" arrivalLane="2o_0" arrivalPos="492.80" arrivalSpeed="11.37" duration="78.00" routeLength="990.53" waitingTime="0.00" waitingCount="0" stopTime="0.00" timeLoss="9.59" rerouteNo="0" devices="tripinfo_SN_185" vType="car" speedFactor="1.04" vaporized=""/>
    <tripinfo id="SN_181" depart="181.00" departLane="3i_0" departPos="4.10" departSpeed="0.00" departDelay="0.00" arrival="268.00" arrivalLane="4o_0" arrivalPos="492.80" arrivalSpeed="9.64" duration="87.00" routeLength="995.90" waitingTime="0.00" waitingCount="0" stopTime="0.00" timeLoss="9.50" rerouteNo="0" devices="tripinfo_SN_181" vType="car" speedFactor="0.91" vaporized=""/>
    <tripinfo id="EW_190" depart="190.00" departLane="4i_0" departPos="4.10" departSpeed="0.00" departDelay="0.00" arrival="273.00" arrivalLane="1o_0" arrivalPos="492.80" arrivalSpeed="11.16" duration="83.00" routeLength="990.53" waitingTime="0.00" waitingCount="0" stopTime="0.00" timeLoss="13.48" rerouteNo="0" devices="tripinfo_EW_190" vType="car" speedFactor="1.02" vaporized=""/>
    <tripinfo id="SN_192" depart="192.00" departLane="3i_0" departPos="4.10" departSpeed="0.00" departDelay="0.00" arrival="275.00" arrivalLane="1o_0" arrivalPos="492.80" arrivalSpeed="10.34" duration="83.00" routeLength="995.70" waitingTime="0.00" waitingCount="0" stopTime="0.00" timeLoss="13.55" rerouteNo="0" devices="tripinfo_SN_192" vType="car" speedFactor="1.02" vaporized=""/>
    <tripinfo id="WE_197" depart="197.00" departLane="1i_0" departPos="4.10" departSpeed="0.00" departDelay="0.00" arrival="279.00" arrivalLane="4o_0" arrivalPos="492.80" arrivalSpeed="10.53" duration="82.00" routeLength="995.70" waitingTime="0.00" waitingCount="0" stopTime="0.00" timeLoss="9.16" rerouteNo="0" devices="tripinfo_WE_197" vType="car" speedFactor="0.97" vaporized=""/>
    <tripinfo id="NS_210" depart="211.00" departLane="2i_0" departPos="4.10" departSpeed="0.00" departDelay="1.00" arrival="286.00" arrivalLane="3o_0" arrivalPos="492.80" arrivalSpeed="12.00" duration="75.00" routeLength="995.70" waitingTime="0.00" waitingCount="0" stopTime="0.00" timeLoss="9.52" rerouteNo="0" devices="tripinfo_NS_210" vType="car" speedFactor="1.09" vaporized=""/>
    <tripinfo id="SN_198" depart="198.00" departLane="3i_0" departPos="4.10" departSpeed="0.00" departDelay="0.00" arrival="288.00" arrivalLane="1o_0" arrivalPos="492.80" arrivalSpeed="10.12" duration="90.00" routeLength="995.70" waitingTime="0.00" waitingCount="0" stopTime="0.00" timeLoss="14.80" rerouteNo="0" devices="tripinfo_SN_198" vType="car" speedFactor="0.94" vaporized=""/>
    <tripinfo id="WE_206" depart="206.00" departLane="1i_0" departPos="4.10" departSpeed="0.00" departDelay="0.00" arrival="289.00" arrivalLane="4o_0" arrivalPos="492.80" arrivalSpeed="9.99" duration="83.00" routeLength="995.70" waitingTime="0.00" waitingCount="0" stopTime="0.00" timeLoss="12.90" rerouteNo="0" devices="tripinfo_WE_206" vType="car" speedFactor="1.01" vaporized=""/>
    <tripinfo id="EW_202" depart="202.00" departLane="4i_0" departPos="4.10" departSpeed="0.00" departDelay="0.00" arrival="296.00" arrivalLane="2o_0" arrivalPos="492.80" arrivalSpeed="10.11" duration="94.00" routeLength="995.70" waitingTime="4.00" waitingCount="2" stopTime="0.00" timeLoss="19.86" rerouteNo="0" devices="tripinfo_EW_202" vType="car" speedFactor="0.96" vaporized=""/>