<?xml version="1.0" encoding="UTF-8"?>

<!-- generated on 2024-05-05 15:55:57 by Eclipse SUMO sumo Version 1.19.0
<configuration xmlns:xsi="http://www.w3.org/2001/XMLSchema-instance" xsi:noNamespaceSchemaLocation="http://sumo.dlr.de/xsd/sumoConfiguration.xsd">

    <input>
        <net-file value="twoone.net.xml"/>
        <route-files value="route_gen.rou.xml"/>
    </input>

    <output>
        <tripinfo-output value="tripinfo_epi60.xml"/>
    </output>

    <report>
        <no-warnings value="true"/>
    </report>

    <traci_server>
        <remote-port value="49601"/>
    </traci_server>

</configuration>
-->

<tripinfos xmlns:xsi="http://www.w3.org/2001/XMLSchema-instance" xsi:noNamespaceSchemaLocation="http://sumo.dlr.de/xsd/tripinfo_file.xsd">
    <tripinfo id="WE_1" depart="1.00" departLane="1i_0" departPos="4.10" departSpeed="0.00" departDelay="0.00" arrival="76.00" arrivalLane="3o_0" arrivalPos="492.80" arrivalSpeed="10.84" duration="75.00" routeLength="990.53" waitingTime="0.00" waitingCount="0" stopTime="0.00" timeLoss="8.29" rerouteNo="0" devices="tripinfo_WE_1" vType="car" speedFactor="1.06" vaporized=""/>
    <tripinfo id="WE_11" depart="11.00" departLane="1i_0" departPos="4.10" departSpeed="0.00" departDelay="0.00" arrival="89.00" arrivalLane="2o_0" arrivalPos="492.80" arrivalSpeed="11.13" duration="78.00" routeLength="995.90" waitingTime="0.00" waitingCount="0" stopTime="0.00" timeLoss="7.62" rerouteNo="0" devices="tripinfo_WE_11" vType="car" speedFactor="1.01" vaporized=""/>
    <tripinfo id="NS_11" depart="11.00" departLane="2i_0" departPos="4.10" departSpeed="0.00" departDelay="0.00" arrival="90.00" arrivalLane="3o_0" arrivalPos="492.80" arrivalSpeed="11.39" duration="79.00" routeLength="995.70" waitingTime="0.00" waitingCount="0" stopTime="0.00" timeLoss="9.72" rerouteNo="0" devices="tripinfo_NS_11" vType="car" speedFactor="1.03" vaporized=""/>
    <tripinfo id="EW_7" depart="7.00" departLane="4i_0" departPos="4.10" departSpeed="0.00" departDelay="0.00" arrival="92.00" arrivalLane="1o_0" arrivalPos="492.80" arrivalSpeed="9.75" duration="85.00" routeLength="990.53" waitingTime="0.00" waitingCount="0" stopTime="0.00" timeLoss="9.51" rerouteNo="0" devices="tripinfo_EW_7" vType="car" speedFactor="0.94" vaporized=""/>
    <tripinfo id="EW_11" depart="11.00" departLane="4i_0" departPos="4.10" departSpeed="0.00" departDelay="0.00" arrival="92.00" arrivalLane="3o_0" arrivalPos="492.80" arrivalSpeed="11.02" duration="81.00" routeLength="995.90" waitingTime="0.00" waitingCount="0" stopTime="0.00" timeLoss="15.42" rerouteNo="0" devices="tripinfo_EW_11" vType="car" speedFactor="1.08" vaporized=""/>
    <tripinfo id="EW_16" depart="16.00" departLane="4i_0" departPos="4.10" departSpeed="0.00" departDelay="0.00" arrival="98.00" arrivalLane="3o_0" arrivalPos="492.80" arrivalSpeed="10.85" duration="82.00" routeLength="995.90" waitingTime="0.00" waitingCount="0" stopTime="0.00" timeLoss="14.36" rerouteNo="0" devices="tripinfo_EW_16" vType="car" speedFactor="1.05" vaporized=""/>
    <tripinfo id="SN_19" depart="19.00" departLane="3i_0" departPos="10.10" departSpeed="0.00" departDelay="0.00" arrival="103.00" arrivalLane="2o_0" arrivalPos="492.80" arrivalSpeed="10.29" duration="84.00" routeLength="984.53" waitingTime="0.00" waitingCount="0" stopTime="0.00" timeLoss="11.06" rerouteNo="0" devices="tripinfo_SN_19" vType="truck" speedFactor="0.97" vaporized=""/>
    <tripinfo id="EW_12" depart="13.00" departLane="4i_0" departPos="4.10" departSpeed="0.00" departDelay="1.00" arrival="108.00" arrivalLane="1o_0" arrivalPos="492.80" arrivalSpeed="9.05" duration="95.00" routeLength="990.53" waitingTime="0.00" waitingCount="0" stopTime="0.00" timeLoss="10.36" rerouteNo="0" devices="tripinfo_EW_12" vType="car" speedFactor="0.83" vaporized=""/>
    <tripinfo id="WE_18" depart="18.00" departLane="1i_0" departPos="4.10" departSpeed="0.00" departDelay="0.00" arrival="113.00" arrivalLane="4o_0" arrivalPos="492.80" arrivalSpeed="9.53" duration="95.00" routeLength="995.70" waitingTime="1.00" waitingCount="1" stopTime="0.00" timeLoss="14.68" rerouteNo="0" devices="tripinfo_WE_18" vType="car" speedFactor="0.89" vaporized=""/>
    <tripinfo id="SN_26" depart="27.00" departLane="3i_0" departPos="4.10" departSpeed="0.00" departDelay="1.00" arrival="114.00" arrivalLane="2o_0" arrivalPos="492.80" arrivalSpeed="10.57" duration="87.00" routeLength="990.53" waitingTime="4.00" waitingCount="2" stopTime="0.00" timeLoss="19.50" rerouteNo="0" devices="tripinfo_SN_26" vType="car" speedFactor="1.05" vaporized=""/>
    <tripinfo id="NS_22" depart="22.00" departLane="2i_0" departPos="4.10" departSpeed="0.00" departDelay="0.00" arrival="118.00" arrivalLane="4o_0" arrivalPos="492.80" arrivalSpeed="8.67" duration="96.00" routeLength="990.53" waitingTime="3.00" waitingCount="1" stopTime="0.00" timeLoss="13.81" rerouteNo="0" devices="tripinfo_NS_22" vType="car" speedFactor="0.86" vaporized=""/>
    <tripinfo id="EW_36" depart="36.00" departLane="4i_0" departPos="4.10" departSpeed="0.00" departDelay="0.00" arrival="119.00" arrivalLane="1o_0" arrivalPos="492.80" arrivalSpeed="10.04" duration="83.00" routeLength="990.53" waitingTime="0.00" waitingCount="0" stopTime="0.00" timeLoss="8.05" rerouteNo="0" devices="tripinfo_EW_36" vType="car" speedFactor="0.94" vaporized=""/>
    <tripinfo id="WE_28" depart="28.00" departLane="1i_0" departPos="4.10" departSpeed="0.00" departDelay="0.00" arrival="120.00" arrivalLane="4o_0" arrivalPos="492.80" arrivalSpeed="12.11" duration="92.00" routeLength="995.70" waitingTime="1.00" waitingCount="1" stopTime="0.00" timeLoss="28.60" rerouteNo="0" devices="tripinfo_WE_28" vType="car" speedFactor="1.12" vaporized=""/>
    <tripinfo id="SN_24" depart="24.00" departLane="3i_0" departPos="4.10" departSpeed="0.00" departDelay="0.00" arrival="122.00" arrivalLane="4o_0" arrivalPos="492.80" arrivalSpeed="11.25" duration="98.00" routeLength="995.90" waitingTime="4.00" waitingCount="2" stopTime="0.00" timeLoss="28.49" rerouteNo="0" devices="tripinfo_SN_24" vType="car" speedFactor="1.03" vaporized=""/>
    <tripinfo id="NS_23" depart="25.00" departLane="2i_0" departPos="4.10" departSpeed="0.00" departDelay="2.00" arrival="123.00" arrivalLane="4o_0" arrivalPos="492.80" arrivalSpeed="11.01" duration="98.00" routeLength="990.53" waitingTime="8.00" waitingCount="2" stopTime="0.00" timeLoss="33.54" rerouteNo="0" devices="tripinfo_NS_23" vType="car" speedFactor="1.09" vaporized=""/>
    <tripinfo id="SN_37" depart="37.00" departLane="3i_0" departPos="4.10" departSpeed="0.00" departDelay="0.00" arrival="124.00" arrivalLane="2o_0" arrivalPos="492.80" arrivalSpeed="9.14" duration="87.00" routeLength="990.53" waitingTime="0.00" waitingCount="0" stopTime="0.00" timeLoss="11.91" rerouteNo="0" devices="tripinfo_SN_37" vType="car" speedFactor="0.94" vaporized=""/>
    <tripinfo id="SN_35" depart="35.00" departLane="3i_0" departPos="4.10" departSpeed="0.00" departDelay="0.00" arrival="126.00" arrivalLane="1o_0" arrivalPos="492.80" arrivalSpeed="9.74" duration="91.00" routeLength="995.70" waitingTime="0.00" waitingCount="0" stopTime="0.00" timeLoss="10.10" rerouteNo="0" devices="tripinfo_SN_35" vType="car" speedFactor="0.88" vaporized=""/>
    <tripinfo id="EW_46" depart="46.00" departLane="4i_0" departPos="4.10" departSpeed="0.00" departDelay="0.00" arrival="128.00" arrivalLane="1o_0" arrivalPos="492.80" arrivalSpeed="11.09" duration="82.00" routeLength="990.53" waitingTime="0.00" waitingCount="0" stopTime="0.00" timeLoss="12.32" rerouteNo="0" devices="tripinfo_EW_46" vType="car" speedFactor="1.02" vaporized=""/>
    <tripinfo id="WE_34" depart="34.00" departLane="1i_0" departPos="4.10" departSpeed="0.00" departDelay="0.00" arrival="129.00" arrivalLane="4o_0" arrivalPos="492.80" arrivalSpeed="10.24" duration="95.00" routeLength="995.70" waitingTime="5.00" waitingCount="2" stopTime="0.00" timeLoss="18.47" rerouteNo="0" devices="tripinfo_WE_34" vType="car" speedFactor="0.93" vaporized=""/>
    <tripinfo id="NS_30" depart="30.00" departLane="2i_0" departPos="4.10" departSpeed="0.00" departDelay="0.00" arrival="131.00" arrivalLane="4o_0" arrivalPos="492.80" arrivalSpeed="10.39" duration="101.00" routeLength="990.53" waitingTime="8.00" waitingCount="2" stopTime="0.00" timeLoss="29.62" rerouteNo="0" devices="tripinfo_NS_30" vType="car" speedFactor="0.99" vaporized=""/>
    <tripinfo id="NS_45" depart="45.00" departLane="2i_0" departPos="4.10" departSpeed="0.00" departDelay="0.00" arrival="133.00" arrivalLane="4o_0" arrivalPos="492.80" arrivalSpeed="11.63" duration="88.00" routeLength="990.53" waitingTime="2.00" waitingCount="1" stopTime="0.00" timeLoss="26.60" rerouteNo="0" devices="tripinfo_NS_45" vType="car" speedFactor="1.16" vaporized=""/>
    <tripinfo id="WE_48" depart="48.00" departLane="1i_0" departPos="4.10" departSpeed="0.00" departDelay="0.00" arrival="133.00" arrivalLane="3o_0" arrivalPos="492.80" arrivalSpeed="10.29" duration="85.00" routeLength="990.53" waitingTime="5.00" waitingCount="1" stopTime="0.00" timeLoss="15.07" rerouteNo="0" devices="tripinfo_WE_48" vType="car" speedFactor="1.01" vaporized=""/>
    <tripinfo id="NS_54" depart="54.00" departLane="2i_0" departPos="4.10" departSpeed="0.00" departDelay="0.00" arrival="143.00" arrivalLane="1o_0" arrivalPos="492.80" arrivalSpeed="10.54" duration="89.00" routeLength="995.90" waitingTime="1.00" waitingCount="1" stopTime="0.00" timeLoss="15.84" rerouteNo="0" devices="tripinfo_NS_54" vType="car" speedFactor="0.97" vaporized=""/>
    <tripinfo id="EW_57" depart="57.00" departLane="4i_0" departPos="4.10" departSpeed="0.00" departDelay="0.00" arrival="152.00" arrivalLane="2o_0" arrivalPos="492.80" arrivalSpeed="8.71" duration="95.00" routeLength="995.70" waitingTime="0.00" waitingCount="0" stopTime="0.00" timeLoss="14.94" rerouteNo="0" devices="tripinfo_EW_57" vType="car" speedFactor="0.89" vaporized=""/>
    <tripinfo id="SN_65" depart="65.00" departLane="3i_0" departPos="4.10" departSpeed="0.00" departDelay="0.00" arrival="156.00" arrivalLane="4o_0" arrivalPos="492.80" arrivalSpeed="10.12" duration="91.00" routeLength="995.90" waitingTime="0.00" waitingCount="0" stopTime="0.00" timeLoss="13.74" rerouteNo="0" devices="tripinfo_SN_65" vType="car" speedFactor="0.92" vaporized=""/>
    <tripinfo id="WE_64" depart="64.00" departLane="1i_0" departPos="4.10" departSpeed="0.00" departDelay="0.00" arrival="157.00" arrivalLane="3o_0" arrivalPos="492.80" arrivalSpeed="8.74" duration="93.00" routeLength="990.53" waitingTime="0.00" waitingCount="0" stopTime="0.00" timeLoss="12.48" rerouteNo="0" devices="tripinfo_WE_64" vType="car" speedFactor="0.87" vaporized=""/>
    <tripinfo id="NS_59" depart="59.00" departLane="2i_0" departPos="4.10" departSpeed="0.00" departDelay="0.00" arrival="159.00" arrivalLane="1o_0" arrivalPos="492.80" arrivalSpeed="9.09" duration="100.00" routeLength="995.90" waitingTime="2.00" waitingCount="1" stopTime="0.00" timeLoss="14.18" rerouteNo="0" devices="tripinfo_NS_59" vType="car" speedFactor="0.83" vaporized=""/>
    <tripinfo id="NS_70" depart="70.00" departLane="2i_0" departPos="4.10" departSpeed="0.00" departDelay="0.00" arrival="159.00" arrivalLane="3o_0" arrivalPos="492.80" arrivalSpeed="12.39" duration="89.00" routeLength="995.70" waitingTime="1.00" waitingCount="1" stopTime="0.00" timeLoss="26.00" rerouteNo="0" devices="tripinfo_NS_70" vType="car" speedFactor="1.13" vaporized=""/>
    <tripinfo id="EW_69" depart="69.00" departLane="4i_0" departPos="4.10" departSpeed="0.00" departDelay="0.00" arrival="161.00" arrivalLane="3o_0" arrivalPos="492.80" arrivalSpeed="10.51" duration="92.00" routeLength="995.90" waitingTime="1.00" waitingCount="1" stopTime="0.00" timeLoss="17.09" rerouteNo="0" devices="tripinfo_EW_69" vType="car" speedFactor="0.95" vaporized=""/>
    <tripinfo id="NS_74" depart="74.00" departLane="2i_0" departPos="4.10" departSpeed="0.00" departDelay="0.00" arrival="161.00" arrivalLane="1o_0" arrivalPos="492.80" arrivalSpeed="11.81" duration="87.00" routeLength="995.90" waitingTime="0.00" waitingCount="0" stopTime="0.00" timeLoss="25.16" rerouteNo="0" devices="tripinfo_NS_74" vType="car" speedFactor="1.15" vaporized=""/>
    <tripinfo id="EW_74" depart="74.00" departLane="4i_0" departPos="4.10" departSpeed="0.00" departDelay="0.00" arrival="162.00" arrivalLane="1o_0" arrivalPos="492.80" arrivalSpeed="11.51" duration="88.00" routeLength="990.53" waitingTime="2.00" waitingCount="1" stopTime="0.00" timeLoss="28.42" rerouteNo="0" devices="tripinfo_EW_74" vType="car" speedFactor="1.18" vaporized=""/>
    <tripinfo id="WE_74" depart="74.00" departLane="1i_0" departPos="4.10" departSpeed="0.00" departDelay="0.00" arrival="165.00" arrivalLane="2o_0" arrivalPos="492.80" arrivalSpeed="9.74" duration="91.00" routeLength="995.90" waitingTime="1.00" waitingCount="1" stopTime="0.00" timeLoss="14.57" rerouteNo="0" devices="tripinfo_WE_74" vType="car" speedFactor="0.93" vaporized=""/>
    <tripinfo id="EW_77" depart="77.00" departLane="4i_0" departPos="4.10" departSpeed="0.00" departDelay="0.00" arrival="166.00" arrivalLane="1o_0" arrivalPos="492.80" arrivalSpeed="10.38" duration="89.00" routeLength="990.53" waitingTime="1.00" waitingCount="1" stopTime="0.00" timeLoss="18.35" rerouteNo="0" devices="tripinfo_EW_77" vType="car" speedFactor="1.01" vaporized=""/>
    <tripinfo id="WE_81" depart="81.00" departLane="1i_0" departPos="4.10" departSpeed="0.00" departDelay="0.00" arrival="166.00" arrivalLane="2o_0" arrivalPos="492.80" arrivalSpeed="11.91" duration="85.00" routeLength="995.90" waitingTime="0.00" waitingCount="0" stopTime="0.00" timeLoss="24.65" rerouteNo="0" devices="tripinfo_WE_81" vType="car" speedFactor="1.17" vaporized=""/>
    <tripinfo id="SN_82" depart="82.00" departLane="3i_0" departPos="4.10" departSpeed="0.00" departDelay="0.00" arrival="168.00" arrivalLane="4o_0" arrivalPos="492.80" arrivalSpeed="9.77" duration="86.00" routeLength="995.90" waitingTime="0.00" waitingCount="0" stopTime="0.00" timeLoss="14.32" rerouteNo="0" devices="tripinfo_SN_82" vType="car" speedFactor="0.99" vaporized=""/>
    <tripinfo id="SN_94" depart="94.00" departLane="3i_0" departPos="4.10" departSpeed="0.00" departDelay="0.00" arrival="168.00" arrivalLane="2o_0" arrivalPos="492.80" arrivalSpeed="12.20" duration="74.00" routeLength="990.53" waitingTime="0.00" waitingCount="0" stopTime="0.00" timeLoss="9.64" rerouteNo="0" devices="tripinfo_SN_94" vType="car" speedFactor="1.10" vaporized=""/>
    <tripinfo id="NS_85" depart="85.00" departLane="2i_0" departPos="10.10" departSpeed="0.00" departDelay="0.00" arrival="170.00" arrivalLane="4o_0" arrivalPos="492.80" arrivalSpeed="10.85" duration="85.00" routeLength="984.53" waitingTime="0.00" waitingCount="0" stopTime="0.00" timeLoss="15.48" rerouteNo="0" devices="tripinfo_NS_85" vType="truck" speedFactor="1.01" vaporized=""/>
    <tripinfo id="NS_94" depart="94.00" departLane="2i_0" departPos="4.10" departSpeed="0.00" departDelay="0.00" arrival="172.00" arrivalLane="3o_0" arrivalPos="492.80" arrivalSpeed="12.10" duration="78.00" routeLength="995.70" waitingTime="2.00" waitingCount="1" stopTime="0.00" timeLoss="17.73" rerouteNo="0" devices="tripinfo_NS_94" vType="car" speedFactor="1.18" vaporized=""/>
    <tripinfo id="NS_90" depart="90.00" departLane="2i_0" departPos="4.10" departSpeed="0.00" departDelay="0.00" arrival="174.00" arrivalLane="1o_0" arrivalPos="492.80" arrivalSpeed="10.29" duration="84.00" routeLength="995.90" waitingTime="0.00" waitingCount="0" stopTime="0.00" timeLoss="11.29" rerouteNo="0" devices="tripinfo_NS_90" vType="car" speedFactor="0.97" vaporized=""/>
    <tripinfo id="EW_98" depart="98.00" departLane="4i_0" departPos="4.10" departSpeed="0.00" departDelay="0.00" arrival="179.00" arrivalLane="1o_0" arrivalPos="492.80" arrivalSpeed="11.17" duration="81.00" routeLength="990.53" waitingTime="2.00" waitingCount="1" stopTime="0.00" timeLoss="11.96" rerouteNo="0" devices="tripinfo_EW_98" vType="car" speedFactor="1.03" vaporized=""/>
    <tripinfo id="WE_109" depart="109.00" departLane="1i_0" departPos="4.10" departSpeed="0.00" departDelay="0.00" arrival="184.00" arrivalLane="2o_0" arrivalPos="492.80" arrivalSpeed="11.04" duration="75.00" routeLength="995.90" waitingTime="0.00" waitingCount="0" stopTime="0.00" timeLoss="9.61" rerouteNo="0" devices="tripinfo_WE_109" vType="car" speedFactor="1.09" vaporized=""/>
    <tripinfo id="NS_96" depart="97.00" departLane="2i_0" departPos="4.10" departSpeed="0.00" departDelay="1.00" arrival="188.00" arrivalLane="1o_0" arrivalPos="492.80" arrivalSpeed="9.88" duration="91.00" routeLength="995.90" waitingTime="0.00" waitingCount="0" stopTime="0.00" timeLoss="11.91" rerouteNo="0" devices="tripinfo_NS_96" vType="car" speedFactor="0.90" vaporized=""/>
    <tripinfo id="SN_103" depart="103.00" departLane="3i_0" departPos="4.10" departSpeed="0.00" departDelay="0.00" arrival="190.00" arrivalLane="1o_0" arrivalPos="492.80" arrivalSpeed="10.05" duration="87.00" routeLength="995.70" waitingTime="0.00" waitingCount="0" stopTime="0.00" timeLoss="12.56" rerouteNo="0" devices="tripinfo_SN_103" vType="car" speedFactor="0.96" vaporized=""/>
    <tripinfo id="SN_105" depart="105.00" departLane="3i_0" departPos="4.10" departSpeed="0.00" departDelay="0.00" arrival="191.00" arrivalLane="1o_0" arrivalPos="492.80" arrivalSpeed="11.11" duration="86.00" routeLength="995.70" waitingTime="0.00" waitingCount="0" stopTime="0.00" timeLoss="17.94" rerouteNo="0" devices="tripinfo_SN_105" vType="car" speedFactor="1.04" vaporized=""/>
    <tripinfo id="NS_108" depart="109.00" departLane="2i_0" departPos="4.10" departSpeed="0.00" departDelay="1.00" arrival="193.00" arrivalLane="4o_0" arrivalPos="492.80" arrivalSpeed="10.56" duration="84.00" routeLength="990.53" waitingTime="0.00" waitingCount="0" stopTime="0.00" timeLoss="15.82" rerouteNo="0" devices="tripinfo_NS_108" vType="car" speedFactor="1.04" vaporized=""/>
    <tripinfo id="NS_105" depart="105.00" departLane="2i_0" departPos="10.10" departSpeed="0.00" departDelay="0.00" arrival="194.00" arrivalLane="1o_0" arrivalPos="492.80" arrivalSpeed="11.22" duration="89.00" routeLength="989.90" waitingTime="0.00" waitingCount="0" stopTime="0.00" timeLoss="20.83" rerouteNo="0" devices="tripinfo_NS_105" vType="truck" speedFactor="1.05" vaporized=""/>
    <tripinfo id="NS_109" depart="112.00" departLane="2i_0" departPos="4.10" departSpeed="0.00" departDelay="3.00" arrival="197.00" arrivalLane="1o_0" arrivalPos="492.80" arrivalSpeed="10.39" duration="85.00" routeLength="995.90" waitingTime="0.00" waitingCount="0" stopTime="0.00" timeLoss="13.74" rerouteNo="0" devices="tripinfo_NS_109" vType="car" speedFactor="1.00" vaporized=""/>
    <tripinfo id="NS_114" depart="115.00" departLane="2i_0" departPos="4.10" departSpeed="0.00" departDelay="1.00" arrival="206.00" arrivalLane="4o_0" arrivalPos="492.80" arrivalSpeed="8.89" duration="91.00" routeLength="990.53" waitingTime="0.00" waitingCount="0" stopTime="0.00" timeLoss="10.24" rerouteNo="0" devices="tripinfo_NS_114" vType="car" speedFactor="0.88" vaporized=""/>
    <tripinfo id="SN_122" depart="122.00" departLane="3i_0" departPos="4.10" departSpeed="0.00" departDelay="0.00" arrival="206.00" arrivalLane="1o_0" arrivalPos="492.80" arrivalSpeed="10.51" duration="84.00" routeLength="995.70" waitingTime="0.00" waitingCount="0" stopTime="0.00" timeLoss="13.73" rerouteNo="0" devices="tripinfo_SN_122" vType="car" speedFactor="1.02" vaporized=""/>
    <tripinfo id="SN_112" depart="112.00" departLane="3i_0" departPos="4.10" departSpeed="0.00" departDelay="0.00" arrival="208.00" arrivalLane="4o_0" arrivalPos="492.80" arrivalSpeed="9.11" duration="96.00" routeLength="995.90" waitingTime="5.00" waitingCount="1" stopTime="0.00" timeLoss="17.43" rerouteNo="0" devices="tripinfo_SN_112" vType="car" speedFactor="0.90" vaporized=""/>
    <tripinfo id="EW_115" depart="115.00" departLane="4i_0" departPos="10.10" departSpeed="0.00" departDelay="0.00" arrival="209.00" arrivalLane="2o_0" arrivalPos="492.80" arrivalSpeed="10.24" duration="94.00" routeLength="989.70" waitingTime="0.00" waitingCount="0" stopTime="0.00" timeLoss="17.75" rerouteNo="0" devices="tripinfo_EW_115" vType="truck" speedFactor="0.93" vaporized=""/>
    <tripinfo id="NS_122" depart="122.00" departLane="2i_0" departPos="4.10" departSpeed="0.00" departDelay="0.00" arrival="210.00" arrivalLane="4o_0" arrivalPos="492.80" arrivalSpeed="12.56" duration="88.00" routeLength="990.53" waitingTime="1.00" waitingCount="1" stopTime="0.00" timeLoss="27.20" rerouteNo="0" devices="tripinfo_NS_122" vType="car" speedFactor="1.17" vaporized=""/>
    <tripinfo id="EW_130" depart="133.00" departLane="4i_0" departPos="4.10" departSpeed="0.00" departDelay="3.00" arrival="214.00" arrivalLane="1o_0" arrivalPos="492.80" arrivalSpeed="10.62" duration="81.00" routeLength="990.53" waitingTime="0.00" waitingCount="0" stopTime="0.00" timeLoss="10.76" rerouteNo="0" devices="tripinfo_EW_130" vType="car" speedFactor="1.00" vaporized=""/>
    <tripinfo id="NS_120" depart="120.00" departLane="2i_0" departPos="4.10" departSpeed="0.00" departDelay="0.00" arrival="219.00" arrivalLane="3o_0" arrivalPos="492.80" arrivalSpeed="9.33" duration="99.00" routeLength="995.70" waitingTime="1.00" waitingCount="1" stopTime="0.00" timeLoss="15.65" rerouteNo="0" devices="tripinfo_NS_120" vType="car" speedFactor="0.85" vaporized=""/>
    <tripinfo id="NS_127" depart="127.00" departLane="2i_0" departPos="4.10" departSpeed="0.00" departDelay="0.00" arrival="220.00" arrivalLane="3o_0" arrivalPos="492.80" arrivalSpeed="11.12" duration="93.00" routeLength="995.70" waitingTime="0.00" waitingCount="0" stopTime="0.00" timeLoss="28.43" rerouteNo="0" devices="tripinfo_NS_127" vType="car" speedFactor="1.10" vaporized=""/>
    <tripinfo id="WE_133" depart="133.00" departLane="1i_0" departPos="4.10" departSpeed="0.00" departDelay="0.00" arrival="221.00" arrivalLane="2o_0" arrivalPos="492.80" arrivalSpeed="8.94" duration="88.00" routeLength="995.90" waitingTime="0.00" waitingCount="0" stopTime="0.00" timeLoss="9.07" rerouteNo="0" devices="tripinfo_WE_133" vType="car" speedFactor="0.90" vaporized=""/>
    <tripinfo id="NS_131" depart="131.00" departLane="2i_0" departPos="4.10" departSpeed="0.00" departDelay="0.00" arrival="222.00" arrivalLane="4o_0" arrivalPos="492.80" arrivalSpeed="10.31" duration="91.00" routeLength="990.53" waitingTime="0.00" waitingCount="0" stopTime="0.00" timeLoss="19.80" rerouteNo="0" devices="tripinfo_NS_131" vType="car" speedFactor="1.00" vaporized=""/>
    <tripinfo id="EW_140" depart="140.00" departLane="4i_0" departPos="4.10" departSpeed="0.00" departDelay="0.00" arrival="222.00" arrivalLane="3o_0" arrivalPos="492.80" arrivalSpeed="11.22" duration="82.00" routeLength="995.90" waitingTime="0.00" waitingCount="0" stopTime="0.00" timeLoss="12.88" rerouteNo="0" devices="tripinfo_EW_140" vType="car" speedFactor="1.02" vaporized=""/>
    <tripinfo id="WE_135" depart="136.00" departLane="1i_0" departPos="4.10" departSpeed="0.00" departDelay="1.00" arrival="223.00" arrivalLane="2o_0" arrivalPos="492.80" arrivalSpeed="12.10" duration="87.00" routeLength="995.90" waitingTime="0.00" waitingCount="0" stopTime="0.00" timeLoss="24.49" rerouteNo="0" devices="tripinfo_WE_135" vType="car" speedFactor="1.14" vaporized=""/>
    <tripinfo id="WE_142" depart="143.00" departLane="1i_0" departPos="4.10" departSpeed="0.00" departDelay="1.00" arrival="224.00" arrivalLane="2o_0" arrivalPos="492.80" arrivalSpeed="11.58" duration="81.00" routeLength="995.90" waitingTime="0.00" waitingCount="0" stopTime="0.00" timeLoss="15.91" rerouteNo="0" devices="tripinfo_WE_142" vType="car" speedFactor="1.08" vaporized=""/>
    <tripinfo id="SN_146" depart="146.00" departLane="3i_0" departPos="4.10" departSpeed="0.00" departDelay="0.00" arrival="228.00" arrivalLane="1o_0" arrivalPos="492.80" arrivalSpeed="11.68" duration="82.00" routeLength="995.70" waitingTime="3.00" waitingCount="2" stopTime="0.00" timeLoss="18.61" rerouteNo="0" devices="tripinfo_SN_146" vType="car" speedFactor="1.12" vaporized=""/>
    <tripinfo id="NS_141" depart="141.00" departLane="2i_0" departPos="4.10" departSpeed="0.00" departDelay="0.00" arrival="231.00" arrivalLane="3o_0" arrivalPos="492.80" arrivalSpeed="10.65" duration="90.00" routeLength="995.70" waitingTime="1.00" waitingCount="1" stopTime="0.00" timeLoss="17.10" rerouteNo="0" devices="tripinfo_NS_141" vType="car" speedFactor="0.97" vaporized=""/>
    <tripinfo id="NS_147" depart="147.00" departLane="2i_0" departPos="4.10" departSpeed="0.00" departDelay="0.00" arrival="233.00" arrivalLane="3o_0" arrivalPos="492.80" arrivalSpeed="11.25" duration="86.00" routeLength="995.70" waitingTime="0.00" waitingCount="0" stopTime="0.00" timeLoss="16.29" rerouteNo="0" devices="tripinfo_NS_147" vType="car" speedFactor="1.02" vaporized=""/>
    <tripinfo id="SN_147" depart="149.00" departLane="3i_0" departPos="4.10" departSpeed="0.00" departDelay="2.00" arrival="238.00" arrivalLane="2o_0" arrivalPos="492.80" arrivalSpeed="10.33" duration="89.00" routeLength="990.53" waitingTime="2.00" waitingCount="1" stopTime="0.00" timeLoss="17.69" rerouteNo="0" devices="tripinfo_SN_147" vType="car" speedFactor="0.99" vaporized=""/>
    <tripinfo id="EW_153" depart="153.00" departLane="4i_0" departPos="4.10" departSpeed="0.00" departDelay="0.00" arrival="239.00" arrivalLane="1o_0" arrivalPos="492.80" arrivalSpeed="9.65" duration="86.00" routeLength="990.53" waitingTime="0.00" waitingCount="0" stopTime="0.00" timeLoss="11.04" rerouteNo="0" devices="tripinfo_EW_153" vType="car" speedFactor="0.94" vaporized=""/>
    <tripinfo id="SN_160" depart="161.00" departLane="3i_0" departPos="4.10" departSpeed="0.00" departDelay="1.00" arrival="241.00" arrivalLane="2o_0" arrivalPos="492.80" arrivalSpeed="11.42" duration="80.00" routeLength="990.53" waitingTime="0.00" waitingCount="0" stopTime="0.00" timeLoss="11.66" rerouteNo="0" devices="tripinfo_SN_160" vType="car" speedFactor="1.04" vaporized=""/>
    <tripinfo id="NS_157" depart="157.00" departLane="2i_0" departPos="4.10" departSpeed="0.00" departDelay="0.00" arrival="244.00" arrivalLane="1o_0" arrivalPos="492.80" arrivalSpeed="8.88" duration="87.00" routeLength="995.90" waitingTime="0.00" waitingCount="0" stopTime="0.00" timeLoss="9.08" rerouteNo="0" devices="tripinfo_NS_157" vType="car" speedFactor="0.91" vaporized=""/>
    <tripinfo id="NS_160" depart="160.00" departLane="2i_0" departPos="4.10" departSpeed="0.00" departDelay="0.00" arrival="246.00" arrivalLane="1o_0" arrivalPos="492.80" arrivalSpeed="8.93" duration="86.00" routeLength="995.90" waitingTime="0.00" waitingCount="0" stopTime="0.00" timeLoss="8.53" rerouteNo="0" devices="tripinfo_NS_160" vType="car" speedFactor="0.91" vaporized=""/>
    <tripinfo id="SN_167" depart="167.00" departLane="3i_0" departPos="4.10" departSpeed="0.00" departDelay="0.00" arrival="248.00" arrivalLane="2o_0" arrivalPos="492.80" arrivalSpeed="10.52" duration="81.00" routeLength="990.53" waitingTime="0.00" waitingCount="0" stopTime="0.00" timeLoss="8.55" rerouteNo="0" devices="tripinfo_SN_167" vType="car" speedFactor="0.97" vaporized=""/>
    <tripinfo id="EW_162" depart="162.00" departLane="4i_0" departPos="4.10" departSpeed="0.00" departDelay="0.00" arrival="250.00" arrivalLane="2o_0" arrivalPos="492.80" arrivalSpeed="10.82" duration="88.00" routeLength="995.70" waitingTime="2.00" waitingCount="1" stopTime="0.00" timeLoss="18.60" rerouteNo="0" devices="tripinfo_EW_162" vType="car" speedFactor="1.02" vaporized=""/>
    <tripinfo id="WE_155" depart="155.00" departLane="1i_0" departPos="4.10" departSpeed="0.00" departDelay="0.00" arrival="252.00" arrivalLane="4o_0" arrivalPos="492.80" arrivalSpeed="9.35" duration="97.00" routeLength="995.70" waitingTime="1.00" waitingCount="1" stopTime="0.00" timeLoss="16.15" rerouteNo="0" devices="tripinfo_WE_155" vType="car" speedFactor="0.88" vaporized=""/>
    <tripinfo id="WE_175" depart="175.00" departLane="1i_0" departPos="4.10" departSpeed="0.00" departDelay="0.00" arrival="252.00" arrivalLane="2o_0" arrivalPos="492.80" arrivalSpeed="10.26" duration="77.00" routeLength="995.90" waitingTime="0.00" waitingCount="0" stopTime="0.00" timeLoss="8.24" rerouteNo="0" devices="tripinfo_WE_175" vType="car" speedFactor="1.03" vaporized=""/>
    <tripinfo id="WE_162" depart="162.00" departLane="1i_0" departPos="4.10" departSpeed="0.00" departDelay="0.00" arrival="253.00" arrivalLane="4o_0" arrivalPos="492.80" arrivalSpeed="10.39" duration="91.00" routeLength="995.70" waitingTime="2.00" waitingCount="1" stopTime="0.00" timeLoss="21.92" rerouteNo="0" devices="tripinfo_WE_162" vType="car" speedFactor="1.02" vaporized=""/>
    <tripinfo id="EW_173" depart="173.00" departLane="4i_0" departPos="4.10" departSpeed="0.00" departDelay="0.00" arrival="254.00" arrivalLane="2o_0" arrivalPos="492.80" arrivalSpeed="10.63" duration="81.00" routeLength="995.70" waitingTime="1.00" waitingCount="1" stopTime="0.00" timeLoss="13.65" rerouteNo="0" devices="tripinfo_EW_173" vType="car" speedFactor="1.06" vaporized=""/>
    <tripinfo id="NS_172" depart="172.00" departLane="2i_0" departPos="4.10" departSpeed="0.00" departDelay="0.00" arrival="262.00" arrivalLane="1o_0" arrivalPos="492.80" arrivalSpeed="10.17" duration="90.00" routeLength="995.90" waitingTime="3.00" waitingCount="1" stopTime="0.00" timeLoss="14.93" rerouteNo="0" devices="tripinfo_NS_172" vType="car" speedFactor="0.94" vaporized=""/>
    <tripinfo id="SN_177" depart="177.00" departLane="3i_0" departPos="4.10" departSpeed="0.00" departDelay="0.00" arrival="264.00" arrivalLane="1o_0" arrivalPos="492.80" arrivalSpeed="10.03" duration="87.00" routeLength="995.70" waitingTime="1.00" waitingCount="1" stopTime="0.00" timeLoss="15.03" rerouteNo="0" devices="tripinfo_SN_177" vType="car" speedFactor="0.98" vaporized=""/>