<?xml version="1.0" encoding="UTF-8"?>

<!-- generated on 2024-05-05 17:02:35 by Eclipse SUMO sumo Version 1.19.0
<configuration xmlns:xsi="http://www.w3.org/2001/XMLSchema-instance" xsi:noNamespaceSchemaLocation="http://sumo.dlr.de/xsd/sumoConfiguration.xsd">

    <input>
        <net-file value="twoone.net.xml"/>
        <route-files value="route_gen.rou.xml"/>
    </input>

    <output>
        <tripinfo-output value="tripinfo_epi242.xml"/>
    </output>

    <report>
        <no-warnings value="true"/>
    </report>

    <traci_server>
        <remote-port value="60799"/>
    </traci_server>

</configuration>
-->

<tripinfos xmlns:xsi="http://www.w3.org/2001/XMLSchema-instance" xsi:noNamespaceSchemaLocation="http://sumo.dlr.de/xsd/tripinfo_file.xsd">
    <tripinfo id="NS_1" depart="1.00" departLane="2i_0" departPos="4.10" departSpeed="0.00" departDelay="0.00" arrival="75.00" arrivalLane="4o_0" arrivalPos="492.80" arrivalSpeed="11.56" duration="74.00" routeLength="990.53" waitingTime="0.00" waitingCount="0" stopTime="0.00" timeLoss="8.18" rerouteNo="0" devices="tripinfo_NS_1" vType="car" speedFactor="1.08" vaporized=""/>
    <tripinfo id="SN_0" depart="0.00" departLane="3i_0" departPos="4.10" departSpeed="0.00" departDelay="0.00" arrival="81.00" arrivalLane="1o_0" arrivalPos="492.80" arrivalSpeed="10.66" duration="81.00" routeLength="995.70" waitingTime="1.00" waitingCount="1" stopTime="0.00" timeLoss="14.03" rerouteNo="0" devices="tripinfo_SN_0" vType="car" speedFactor="1.06" vaporized=""/>
    <tripinfo id="WE_1" depart="1.00" departLane="1i_0" departPos="4.10" departSpeed="0.00" departDelay="0.00" arrival="91.00" arrivalLane="4o_0" arrivalPos="492.80" arrivalSpeed="10.26" duration="90.00" routeLength="995.70" waitingTime="0.00" waitingCount="0" stopTime="0.00" timeLoss="13.82" rerouteNo="0" devices="tripinfo_WE_1" vType="car" speedFactor="0.94" vaporized=""/>
    <tripinfo id="EW_1" depart="1.00" departLane="4i_0" departPos="4.10" departSpeed="0.00" departDelay="0.00" arrival="91.00" arrivalLane="2o_0" arrivalPos="492.80" arrivalSpeed="10.65" duration="90.00" routeLength="995.70" waitingTime="4.00" waitingCount="2" stopTime="0.00" timeLoss="19.65" rerouteNo="0" devices="tripinfo_EW_1" vType="car" speedFactor="1.01" vaporized=""/>
    <tripinfo id="SN_1" depart="2.00" departLane="3i_0" departPos="4.10" departSpeed="0.00" departDelay="1.00" arrival="92.00" arrivalLane="4o_0" arrivalPos="492.80" arrivalSpeed="11.04" duration="90.00" routeLength="995.90" waitingTime="0.00" waitingCount="0" stopTime="0.00" timeLoss="21.26" rerouteNo="0" devices="tripinfo_SN_1" vType="car" speedFactor="1.03" vaporized=""/>
    <tripinfo id="NS_8" depart="8.00" departLane="2i_0" departPos="4.10" departSpeed="0.00" departDelay="0.00" arrival="94.00" arrivalLane="4o_0" arrivalPos="492.80" arrivalSpeed="10.98" duration="86.00" routeLength="990.53" waitingTime="0.00" waitingCount="0" stopTime="0.00" timeLoss="18.48" rerouteNo="0" devices="tripinfo_NS_8" vType="car" speedFactor="1.05" vaporized=""/>
    <tripinfo id="EW_4" depart="4.00" departLane="4i_0" departPos="4.10" departSpeed="0.00" departDelay="0.00" arrival="104.00" arrivalLane="1o_0" arrivalPos="492.80" arrivalSpeed="8.71" duration="100.00" routeLength="990.53" waitingTime="0.00" waitingCount="0" stopTime="0.00" timeLoss="15.01" rerouteNo="0" devices="tripinfo_EW_4" vType="car" speedFactor="0.83" vaporized=""/>
    <tripinfo id="WE_15" depart="15.00" departLane="1i_0" departPos="4.10" departSpeed="0.00" departDelay="0.00" arrival="105.00" arrivalLane="4o_0" arrivalPos="492.80" arrivalSpeed="9.55" duration="90.00" routeLength="995.70" waitingTime="1.00" waitingCount="1" stopTime="0.00" timeLoss="14.40" rerouteNo="0" devices="tripinfo_WE_15" vType="car" speedFactor="0.94" vaporized=""/>
    <tripinfo id="SN_10" depart="10.00" departLane="3i_0" departPos="4.10" departSpeed="0.00" departDelay="0.00" arrival="106.00" arrivalLane="1o_0" arrivalPos="492.80" arrivalSpeed="9.63" duration="96.00" routeLength="995.70" waitingTime="3.00" waitingCount="1" stopTime="0.00" timeLoss="15.54" rerouteNo="0" devices="tripinfo_SN_10" vType="car" speedFactor="0.89" vaporized=""/>
    <tripinfo id="WE_21" depart="21.00" departLane="1i_0" departPos="4.10" departSpeed="0.00" departDelay="0.00" arrival="107.00" arrivalLane="4o_0" arrivalPos="492.80" arrivalSpeed="10.94" duration="86.00" routeLength="995.70" waitingTime="0.00" waitingCount="0" stopTime="0.00" timeLoss="16.60" rerouteNo="0" devices="tripinfo_WE_21" vType="car" speedFactor="1.03" vaporized=""/>
    <tripinfo id="EW_23" depart="23.00" departLane="4i_0" departPos="4.10" departSpeed="0.00" departDelay="0.00" arrival="107.00" arrivalLane="3o_0" arrivalPos="492.80" arrivalSpeed="11.55" duration="84.00" routeLength="995.90" waitingTime="1.00" waitingCount="1" stopTime="0.00" timeLoss="15.86" rerouteNo="0" devices="tripinfo_EW_23" vType="car" speedFactor="1.05" vaporized=""/>
    <tripinfo id="NS_23" depart="23.00" departLane="2i_0" departPos="10.10" departSpeed="0.00" departDelay="0.00" arrival="122.00" arrivalLane="3o_0" arrivalPos="492.80" arrivalSpeed="11.38" duration="99.00" routeLength="989.70" waitingTime="11.00" waitingCount="1" stopTime="0.00" timeLoss="31.72" rerouteNo="0" devices="tripinfo_NS_23" vType="truck" speedFactor="1.06" vaporized=""/>
    <tripinfo id="NS_32" depart="32.00" departLane="2i_0" departPos="4.10" departSpeed="0.00" departDelay="0.00" arrival="130.00" arrivalLane="1o_0" arrivalPos="492.80" arrivalSpeed="10.45" duration="98.00" routeLength="995.90" waitingTime="7.00" waitingCount="1" stopTime="0.00" timeLoss="22.44" rerouteNo="0" devices="tripinfo_NS_32" vType="car" speedFactor="0.94" vaporized=""/>
    <tripinfo id="NS_41" depart="41.00" departLane="2i_0" departPos="4.10" departSpeed="0.00" departDelay="0.00" arrival="132.00" arrivalLane="1o_0" arrivalPos="492.80" arrivalSpeed="9.98" duration="91.00" routeLength="995.90" waitingTime="0.00" waitingCount="0" stopTime="0.00" timeLoss="17.98" rerouteNo="0" devices="tripinfo_NS_41" vType="car" speedFactor="0.97" vaporized=""/>
    <tripinfo id="NS_53" depart="53.00" departLane="2i_0" departPos="4.10" departSpeed="0.00" departDelay="0.00" arrival="132.00" arrivalLane="3o_0" arrivalPos="492.80" arrivalSpeed="12.42" duration="79.00" routeLength="995.70" waitingTime="0.00" waitingCount="0" stopTime="0.00" timeLoss="15.74" rerouteNo="0" devices="tripinfo_NS_53" vType="car" speedFactor="1.13" vaporized=""/>
    <tripinfo id="NS_50" depart="50.00" departLane="2i_0" departPos="4.10" departSpeed="0.00" departDelay="0.00" arrival="135.00" arrivalLane="4o_0" arrivalPos="492.80" arrivalSpeed="9.14" duration="85.00" routeLength="990.53" waitingTime="0.00" waitingCount="0" stopTime="0.00" timeLoss="8.39" rerouteNo="0" devices="tripinfo_NS_50" vType="car" speedFactor="0.92" vaporized=""/>
    <tripinfo id="WE_27" depart="27.00" departLane="1i_0" departPos="4.10" departSpeed="0.00" departDelay="0.00" arrival="139.00" arrivalLane="4o_0" arrivalPos="492.80" arrivalSpeed="9.96" duration="112.00" routeLength="995.70" waitingTime="26.00" waitingCount="1" stopTime="0.00" timeLoss="40.38" rerouteNo="0" devices="tripinfo_WE_27" vType="car" speedFactor="0.99" vaporized=""/>
    <tripinfo id="EW_31" depart="31.00" departLane="4i_0" departPos="4.10" departSpeed="0.00" departDelay="0.00" arrival="141.00" arrivalLane="2o_0" arrivalPos="492.80" arrivalSpeed="9.18" duration="110.00" routeLength="995.70" waitingTime="15.00" waitingCount="1" stopTime="0.00" timeLoss="28.80" rerouteNo="0" devices="tripinfo_EW_31" vType="car" speedFactor="0.88" vaporized=""/>
    <tripinfo id="WE_28" depart="30.00" departLane="1i_0" departPos="4.10" departSpeed="0.00" departDelay="2.00" arrival="146.00" arrivalLane="3o_0" arrivalPos="492.80" arrivalSpeed="10.17" duration="116.00" routeLength="990.53" waitingTime="24.00" waitingCount="2" stopTime="0.00" timeLoss="39.82" rerouteNo="0" devices="tripinfo_WE_28" vType="car" speedFactor="0.93" vaporized=""/>
    <tripinfo id="SN_16" depart="16.00" departLane="3i_0" departPos="4.10" departSpeed="0.00" departDelay="0.00" arrival="149.00" arrivalLane="4o_0" arrivalPos="492.80" arrivalSpeed="9.28" duration="133.00" routeLength="995.90" waitingTime="36.00" waitingCount="2" stopTime="0.00" timeLoss="50.51" rerouteNo="0" devices="tripinfo_SN_16" vType="car" speedFactor="0.86" vaporized=""/>
    <tripinfo id="SN_51" depart="51.00" departLane="3i_0" departPos="4.10" departSpeed="0.00" departDelay="0.00" arrival="150.00" arrivalLane="2o_0" arrivalPos="492.80" arrivalSpeed="10.10" duration="99.00" routeLength="990.53" waitingTime="9.00" waitingCount="1" stopTime="0.00" timeLoss="24.49" rerouteNo="0" devices="tripinfo_SN_51" vType="car" speedFactor="0.95" vaporized=""/>
    <tripinfo id="NS_67" depart="67.00" departLane="2i_0" departPos="4.10" departSpeed="0.00" departDelay="0.00" arrival="150.00" arrivalLane="3o_0" arrivalPos="492.80" arrivalSpeed="10.03" duration="83.00" routeLength="995.70" waitingTime="0.00" waitingCount="0" stopTime="0.00" timeLoss="12.29" rerouteNo="0" devices="tripinfo_NS_67" vType="car" speedFactor="1.01" vaporized=""/>
    <tripinfo id="SN_20" depart="20.00" departLane="3i_0" departPos="4.10" departSpeed="0.00" departDelay="0.00" arrival="151.00" arrivalLane="4o_0" arrivalPos="492.80" arrivalSpeed="11.97" duration="131.00" routeLength="995.90" waitingTime="34.00" waitingCount="2" stopTime="0.00" timeLoss="65.63" rerouteNo="0" devices="tripinfo_SN_20" vType="car" speedFactor="1.09" vaporized=""/>
    <tripinfo id="EW_39" depart="39.00" departLane="4i_0" departPos="4.10" departSpeed="0.00" departDelay="0.00" arrival="152.00" arrivalLane="2o_0" arrivalPos="492.80" arrivalSpeed="11.69" duration="113.00" routeLength="995.70" waitingTime="27.00" waitingCount="3" stopTime="0.00" timeLoss="51.31" rerouteNo="0" devices="tripinfo_EW_39" vType="car" speedFactor="1.16" vaporized=""/>
    <tripinfo id="SN_40" depart="40.00" departLane="3i_0" departPos="4.10" departSpeed="0.00" departDelay="0.00" arrival="153.00" arrivalLane="4o_0" arrivalPos="492.80" arrivalSpeed="9.99" duration="113.00" routeLength="995.90" waitingTime="19.00" waitingCount="1" stopTime="0.00" timeLoss="42.49" rerouteNo="0" devices="tripinfo_SN_40" vType="car" speedFactor="1.01" vaporized=""/>
    <tripinfo id="SN_84" depart="84.00" departLane="3i_0" departPos="4.10" departSpeed="0.00" departDelay="0.00" arrival="155.00" arrivalLane="1o_0" arrivalPos="492.80" arrivalSpeed="13.06" duration="71.00" routeLength="995.70" waitingTime="0.00" waitingCount="0" stopTime="0.00" timeLoss="10.26" rerouteNo="0" devices="tripinfo_SN_84" vType="car" speedFactor="1.18" vaporized=""/>
    <tripinfo id="WE_37" depart="37.00" departLane="1i_0" departPos="4.10" departSpeed="0.00" departDelay="0.00" arrival="160.00" arrivalLane="2o_0" arrivalPos="492.80" arrivalSpeed="10.33" duration="123.00" routeLength="995.90" waitingTime="24.00" waitingCount="4" stopTime="0.00" timeLoss="46.97" rerouteNo="0" devices="tripinfo_WE_37" vType="car" speedFactor="0.94" vaporized=""/>
    <tripinfo id="WE_40" depart="40.00" departLane="1i_0" departPos="4.10" departSpeed="0.00" departDelay="0.00" arrival="162.00" arrivalLane="2o_0" arrivalPos="492.80" arrivalSpeed="10.52" duration="122.00" routeLength="995.90" waitingTime="20.00" waitingCount="3" stopTime="0.00" timeLoss="51.81" rerouteNo="0" devices="tripinfo_WE_40" vType="car" speedFactor="1.02" vaporized=""/>
    <tripinfo id="EW_54" depart="54.00" departLane="4i_0" departPos="4.10" departSpeed="0.00" departDelay="0.00" arrival="165.00" arrivalLane="2o_0" arrivalPos="492.80" arrivalSpeed="10.00" duration="111.00" routeLength="995.70" waitingTime="15.00" waitingCount="3" stopTime="0.00" timeLoss="34.45" rerouteNo="0" devices="tripinfo_EW_54" vType="car" speedFactor="0.93" vaporized=""/>
    <tripinfo id="EW_75" depart="75.00" departLane="4i_0" departPos="4.10" departSpeed="0.00" departDelay="0.00" arrival="166.00" arrivalLane="2o_0" arrivalPos="492.80" arrivalSpeed="10.79" duration="91.00" routeLength="995.70" waitingTime="3.00" waitingCount="1" stopTime="0.00" timeLoss="21.84" rerouteNo="0" devices="tripinfo_EW_75" vType="car" speedFactor="1.02" vaporized=""/>
    <tripinfo id="EW_95" depart="95.00" departLane="4i_0" departPos="4.10" departSpeed="0.00" departDelay="0.00" arrival="172.00" arrivalLane="1o_0" arrivalPos="492.80" arrivalSpeed="10.93" duration="77.00" routeLength="990.53" waitingTime="0.00" waitingCount="0" stopTime="0.00" timeLoss="8.85" rerouteNo="0" devices="tripinfo_EW_95" vType="car" speedFactor="1.04" vaporized=""/>
    <tripinfo id="WE_46" depart="46.00" departLane="1i_0" departPos="4.10" departSpeed="0.00" departDelay="0.00" arrival="173.00" arrivalLane="4o_0" arrivalPos="492.80" arrivalSpeed="9.23" duration="127.00" routeLength="995.70" waitingTime="16.00" waitingCount="4" stopTime="0.00" timeLoss="46.86" rerouteNo="0" devices="tripinfo_WE_46" vType="car" speedFactor="0.89" vaporized=""/>
    <tripinfo id="WE_56" depart="56.00" departLane="1i_0" departPos="4.10" departSpeed="0.00" departDelay="0.00" arrival="178.00" arrivalLane="4o_0" arrivalPos="492.80" arrivalSpeed="12.75" duration="122.00" routeLength="995.70" waitingTime="8.00" waitingCount="3" stopTime="0.00" timeLoss="61.68" rerouteNo="0" devices="tripinfo_WE_56" vType="car" speedFactor="1.18" vaporized=""/>
    <tripinfo id="WE_65" depart="65.00" departLane="1i_0" departPos="4.10" departSpeed="0.00" departDelay="0.00" arrival="180.00" arrivalLane="4o_0" arrivalPos="492.80" arrivalSpeed="11.94" duration="115.00" routeLength="995.70" waitingTime="4.00" waitingCount="3" stopTime="0.00" timeLoss="53.83" rerouteNo="0" devices="tripinfo_WE_65" vType="car" speedFactor="1.15" vaporized=""/>
    <tripinfo id="WE_49" depart="49.00" departLane="1i_0" departPos="4.10" departSpeed="0.00" departDelay="0.00" arrival="181.00" arrivalLane="2o_0" arrivalPos="492.80" arrivalSpeed="8.30" duration="132.00" routeLength="995.90" waitingTime="11.00" waitingCount="2" stopTime="0.00" timeLoss="45.94" rerouteNo="0" devices="tripinfo_WE_49" vType="car" speedFactor="0.83" vaporized=""/>
    <tripinfo id="SN_90" depart="90.00" departLane="3i_0" departPos="4.10" departSpeed="0.00" departDelay="0.00" arrival="182.00" arrivalLane="1o_0" arrivalPos="492.80" arrivalSpeed="10.20" duration="92.00" routeLength="995.70" waitingTime="5.00" waitingCount="2" stopTime="0.00" timeLoss="18.26" rerouteNo="0" devices="tripinfo_SN_90" vType="car" speedFactor="0.96" vaporized=""/>
    <tripinfo id="EW_86" depart="86.00" departLane="4i_0" departPos="4.10" departSpeed="0.00" departDelay="0.00" arrival="183.00" arrivalLane="2o_0" arrivalPos="492.80" arrivalSpeed="8.86" duration="97.00" routeLength="995.70" waitingTime="1.00" waitingCount="1" stopTime="0.00" timeLoss="18.02" rerouteNo="0" devices="tripinfo_EW_86" vType="car" speedFactor="0.90" vaporized=""/>
    <tripinfo id="SN_91" depart="93.00" departLane="3i_0" departPos="4.10" departSpeed="0.00" departDelay="2.00" arrival="184.00" arrivalLane="1o_0" arrivalPos="492.80" arrivalSpeed="12.07" duration="91.00" routeLength="995.70" waitingTime="5.00" waitingCount="3" stopTime="0.00" timeLoss="25.95" rerouteNo="0" devices="tripinfo_SN_91" vType="car" speedFactor="1.09" vaporized=""/>
    <tripinfo id="WE_50" depart="52.00" departLane="1i_0" departPos="4.10" departSpeed="0.00" departDelay="2.00" arrival="185.00" arrivalLane="2o_0" arrivalPos="492.80" arrivalSpeed="8.43" duration="133.00" routeLength="995.90" waitingTime="11.00" waitingCount="3" stopTime="0.00" timeLoss="51.82" rerouteNo="0" devices="tripinfo_WE_50" vType="car" speedFactor="0.87" vaporized=""/>
    <tripinfo id="NS_84" depart="84.00" departLane="2i_0" departPos="4.10" departSpeed="0.00" departDelay="0.00" arrival="185.00" arrivalLane="3o_0" arrivalPos="492.80" arrivalSpeed="10.56" duration="101.00" routeLength="995.70" waitingTime="12.00" waitingCount="2" stopTime="0.00" timeLoss="27.81" rerouteNo="0" devices="tripinfo_NS_84" vType="car" speedFactor="0.97" vaporized=""/>
    <tripinfo id="WE_69" depart="69.00" departLane="1i_0" departPos="4.10" departSpeed="0.00" departDelay="0.00" arrival="187.00" arrivalLane="2o_0" arrivalPos="492.80" arrivalSpeed="12.86" duration="118.00" routeLength="995.90" waitingTime="2.00" waitingCount="2" stopTime="0.00" timeLoss="57.08" rerouteNo="0" devices="tripinfo_WE_69" vType="car" speedFactor="1.17" vaporized=""/>
    <tripinfo id="WE_86" depart="86.00" departLane="1i_0" departPos="4.10" departSpeed="0.00" departDelay="0.00" arrival="190.00" arrivalLane="3o_0" arrivalPos="492.80" arrivalSpeed="11.83" duration="104.00" routeLength="990.53" waitingTime="0.00" waitingCount="0" stopTime="0.00" timeLoss="39.61" rerouteNo="0" devices="tripinfo_WE_86" vType="car" speedFactor="1.10" vaporized=""/>
    <tripinfo id="WE_70" depart="73.00" departLane="1i_0" departPos="10.10" departSpeed="0.00" departDelay="3.00" arrival="192.00" arrivalLane="2o_0" arrivalPos="492.80" arrivalSpeed="10.74" duration="119.00" routeLength="989.90" waitingTime="0.00" waitingCount="0" stopTime="0.00" timeLoss="47.59" rerouteNo="0" devices="tripinfo_WE_70" vType="truck" speedFactor="1.00" vaporized=""/>
    <tripinfo id="WE_90" depart="90.00" departLane="1i_0" departPos="4.10" departSpeed="0.00" departDelay="0.00" arrival="195.00" arrivalLane="2o_0" arrivalPos="492.80" arrivalSpeed="10.29" duration="105.00" routeLength="995.90" waitingTime="0.00" waitingCount="0" stopTime="0.00" timeLoss="35.85" rerouteNo="0" devices="tripinfo_WE_90" vType="car" speedFactor="1.03" vaporized=""/>
    <tripinfo id="WE_102" depart="102.00" departLane="1i_0" departPos="10.10" departSpeed="0.00" departDelay="0.00" arrival="197.00" arrivalLane="3o_0" arrivalPos="492.80" arrivalSpeed="11.12" duration="95.00" routeLength="984.53" waitingTime="0.00" waitingCount="0" stopTime="0.00" timeLoss="26.00" rerouteNo="0" devices="tripinfo_WE_102" vType="truck" speedFactor="1.02" vaporized=""/>
    <tripinfo id="NS_108" depart="108.00" departLane="2i_0" departPos="4.10" departSpeed="0.00" departDelay="0.00" arrival="199.00" arrivalLane="4o_0" arrivalPos="492.80" arrivalSpeed="9.66" duration="91.00" routeLength="990.53" waitingTime="0.00" waitingCount="0" stopTime="0.00" timeLoss="9.92" rerouteNo="0" devices="tripinfo_NS_108" vType="car" speedFactor="0.88" vaporized=""/>
    <tripinfo id="WE_107" depart="107.00" departLane="1i_0" departPos="4.10" departSpeed="0.00" departDelay="0.00" arrival="204.00" arrivalLane="4o_0" arrivalPos="492.80" arrivalSpeed="10.57" duration="97.00" routeLength="995.70" waitingTime="0.00" waitingCount="0" stopTime="0.00" timeLoss="25.54" rerouteNo="0" devices="tripinfo_WE_107" vType="car" speedFactor="1.00" vaporized=""/>
    <tripinfo id="NS_112" depart="112.00" departLane="2i_0" departPos="4.10" departSpeed="0.00" departDelay="0.00" arrival="204.00" arrivalLane="1o_0" arrivalPos="492.80" arrivalSpeed="9.01" duration="92.00" routeLength="995.90" waitingTime="0.00" waitingCount="0" stopTime="0.00" timeLoss="8.68" rerouteNo="0" devices="tripinfo_NS_112" vType="car" speedFactor="0.85" vaporized=""/>
    <tripinfo id="SN_106" depart="107.00" departLane="3i_0" departPos="4.10" departSpeed="0.00" departDelay="1.00" arrival="209.00" arrivalLane="2o_0" arrivalPos="492.80" arrivalSpeed="11.07" duration="102.00" routeLength="990.53" waitingTime="20.00" waitingCount="1" stopTime="0.00" timeLoss="36.91" rerouteNo="0" devices="tripinfo_SN_106" vType="car" speedFactor="1.09" vaporized=""/>
    <tripinfo id="WE_108" depart="109.00" departLane="1i_0" departPos="4.10" departSpeed="0.00" departDelay="1.00" arrival="211.00" arrivalLane="4o_0" arrivalPos="492.80" arrivalSpeed="8.88" duration="102.00" routeLength="995.70" waitingTime="0.00" waitingCount="0" stopTime="0.00" timeLoss="22.90" rerouteNo="0" devices="tripinfo_WE_108" vType="car" speedFactor="0.90" vaporized=""/>
    <tripinfo id="WE_109" depart="112.00" departLane="1i_0" departPos="4.10" departSpeed="0.00" departDelay="3.00" arrival="215.00" arrivalLane="3o_0" arrivalPos="492.80" arrivalSpeed="8.28" duration="103.00" routeLength="990.53" waitingTime="0.00" waitingCount="0" stopTime="0.00" timeLoss="19.74" rerouteNo="0" devices="tripinfo_WE_109" vType="car" speedFactor="0.85" vaporized=""/>
    <tripinfo id="EW_115" depart="115.00" departLane="4i_0" departPos="4.10" departSpeed="0.00" departDelay="0.00" arrival="215.00" arrivalLane="2o_0" arrivalPos="492.80" arrivalSpeed="10.38" duration="100.00" routeLength="995.70" waitingTime="14.00" waitingCount="1" stopTime="0.00" timeLoss="29.79" rerouteNo="0" devices="tripinfo_EW_115" vType="car" speedFactor="1.02" vaporized=""/>
    <tripinfo id="SN_113" depart="113.00" departLane="3i_0" departPos="10.10" departSpeed="0.00" departDelay="0.00" arrival="216.00" arrivalLane="4o_0" arrivalPos="492.80" arrivalSpeed="11.74" duration="103.00" routeLength="989.90" waitingTime="10.00" waitingCount="1" stopTime="0.00" timeLoss="36.53" rerouteNo="0" devices="tripinfo_SN_113" vType="truck" speedFactor="1.08" vaporized=""/>
    <tripinfo id="WE_121" depart="121.00" departLane="1i_0" departPos="4.10" departSpeed="0.00" departDelay="0.00" arrival="217.00" arrivalLane="3o_0" arrivalPos="492.80" arrivalSpeed="11.01" duration="96.00" routeLength="990.53" waitingTime="0.00" waitingCount="0" stopTime="0.00" timeLoss="24.56" rerouteNo="0" devices="tripinfo_WE_121" vType="car" speedFactor="1.00" vaporized=""/>
    <tripinfo id="WE_126" depart="126.00" departLane="1i_0" departPos="10.10" departSpeed="0.00" departDelay="0.00" arrival="219.00" arrivalLane="3o_0" arrivalPos="492.80" arrivalSpeed="11.00" duration="93.00" routeLength="984.53" waitingTime="0.00" waitingCount="0" stopTime="0.00" timeLoss="23.30" rerouteNo="0" devices="tripinfo_WE_126" vType="truck" speedFactor="1.01" vaporized=""/>
    <tripinfo id="WE_135" depart="135.00" departLane="1i_0" departPos="4.10" departSpeed="0.00" departDelay="0.00" arrival="219.00" arrivalLane="2o_0" arrivalPos="492.80" arrivalSpeed="11.59" duration="84.00" routeLength="995.90" waitingTime="1.00" waitingCount="1" stopTime="0.00" timeLoss="18.39" rerouteNo="0" devices="tripinfo_WE_135" vType="car" speedFactor="1.08" vaporized=""/>
    <tripinfo id="EW_118" depart="119.00" departLane="4i_0" departPos="10.10" departSpeed="0.00" departDelay="1.00" arrival="221.00" arrivalLane="3o_0" arrivalPos="492.80" arrivalSpeed="10.54" duration="102.00" routeLength="989.90" waitingTime="3.00" waitingCount="1" stopTime="0.00" timeLoss="31.92" rerouteNo="0" devices="tripinfo_EW_118" vType="truck" speedFactor="1.00" vaporized=""/>
    <tripinfo id="SN_117" depart="117.00" departLane="3i_0" departPos="4.10" departSpeed="0.00" departDelay="0.00" arrival="227.00" arrivalLane="1o_0" arrivalPos="492.80" arrivalSpeed="11.60" duration="110.00" routeLength="995.70" waitingTime="15.00" waitingCount="2" stopTime="0.00" timeLoss="45.18" rerouteNo="0" devices="tripinfo_SN_117" vType="car" speedFactor="1.10" vaporized=""/>
    <tripinfo id="EW_122" depart="123.00" departLane="4i_0" departPos="4.10" departSpeed="0.00" departDelay="1.00" arrival="230.00" arrivalLane="3o_0" arrivalPos="492.80" arrivalSpeed="9.17" duration="107.00" routeLength="995.90" waitingTime="3.00" waitingCount="1" stopTime="0.00" timeLoss="28.34" rerouteNo="0" devices="tripinfo_EW_122" vType="car" speedFactor="0.90" vaporized=""/>
    <tripinfo id="EW_134" depart="135.00" departLane="4i_0" departPos="4.10" departSpeed="0.00" departDelay="1.00" arrival="232.00" arrivalLane="3o_0" arrivalPos="492.80" arrivalSpeed="10.60" duration="97.00" routeLength="995.90" waitingTime="1.00" waitingCount="1" stopTime="0.00" timeLoss="23.74" rerouteNo="0" devices="tripinfo_EW_134" vType="car" speedFactor="0.97" vaporized=""/>
    <tripinfo id="NS_153" depart="153.00" departLane="2i_0" departPos="4.10" departSpeed="0.00" departDelay="0.00" arrival="234.00" arrivalLane="3o_0" arrivalPos="492.80" arrivalSpeed="10.74" duration="81.00" routeLength="995.70" waitingTime="0.00" waitingCount="0" stopTime="0.00" timeLoss="12.36" rerouteNo="0" devices="tripinfo_NS_153" vType="car" speedFactor="1.04" vaporized=""/>
    <tripinfo id="EW_135" depart="139.00" departLane="4i_0" departPos="4.10" departSpeed="0.00" departDelay="4.00" arrival="235.00" arrivalLane="3o_0" arrivalPos="492.80" arrivalSpeed="12.04" duration="96.00" routeLength="995.90" waitingTime="1.00" waitingCount="1" stopTime="0.00" timeLoss="32.96" rerouteNo="0" devices="tripinfo_EW_135" vType="car" speedFactor="1.12" vaporized=""/>
    <tripinfo id="SN_124" depart="124.00" departLane="3i_0" departPos="10.10" departSpeed="0.00" departDelay="0.00" arrival="239.00" arrivalLane="1o_0" arrivalPos="492.80" arrivalSpeed="11.74" duration="115.00" routeLength="989.70" waitingTime="12.00" waitingCount="3" stopTime="0.00" timeLoss="48.16" rerouteNo="0" devices="tripinfo_SN_124" vType="truck" speedFactor="1.07" vaporized=""/>
    <tripinfo id="WE_150" depart="150.00" departLane="1i_0" departPos="4.10" departSpeed="0.00" departDelay="0.00" arrival="244.00" arrivalLane="4o_0" arrivalPos="492.80" arrivalSpeed="9.27" duration="94.00" routeLength="995.70" waitingTime="3.00" waitingCount="1" stopTime="0.00" timeLoss="16.19" rerouteNo="0" devices="tripinfo_WE_150" vType="car" speedFactor="0.91" vaporized=""/>
    <tripinfo id="NS_170" depart="170.00" departLane="2i_0" departPos="4.10" departSpeed="0.00" departDelay="0.00" arrival="246.00" arrivalLane="1o_0" arrivalPos="492.80" arrivalSpeed="10.65" duration="76.00" routeLength="995.90" waitingTime="0.00" waitingCount="0" stopTime="0.00" timeLoss="8.81" rerouteNo="0" devices="tripinfo_NS_170" vType="car" speedFactor="1.06" vaporized=""/>
    <tripinfo id="EW_139" depart="141.00" departLane="4i_0" departPos="4.10" departSpeed="0.00" departDelay="2.00" arrival="249.00" arrivalLane="3o_0" arrivalPos="492.80" arrivalSpeed="10.13" duration="108.00" routeLength="995.90" waitingTime="1.00" waitingCount="1" stopTime="0.00" timeLoss="31.84" rerouteNo="0" devices="tripinfo_EW_139" vType="car" speedFactor="0.94" vaporized=""/>
    <tripinfo id="WE_168" depart="168.00" departLane="1i_0" departPos="4.10" departSpeed="0.00" departDelay="0.00" arrival="254.00" arrivalLane="4o_0" arrivalPos="492.80" arrivalSpeed="9.82" duration="86.00" routeLength="995.70" waitingTime="0.00" waitingCount="0" stopTime="0.00" timeLoss="10.06" rerouteNo="0" devices="tripinfo_WE_168" vType="car" speedFactor="0.94" vaporized=""/>
    <tripinfo id="SN_135" depart="135.00" departLane="3i_0" departPos="4.10" departSpeed="0.00" departDelay="0.00" arrival="255.00" arrivalLane="4o_0" arrivalPos="492.80" arrivalSpeed="10.00" duration="120.00" routeLength="995.90" waitingTime="13.00" waitingCount="3" stopTime="0.00" timeLoss="50.49" rerouteNo="0" devices="tripinfo_SN_135" vType="car" speedFactor="1.02" vaporized=""/>
    <tripinfo id="WE_173" depart="173.00" departLane="1i_0" departPos="4.10" departSpeed="0.00" departDelay="0.00" arrival="258.00" arrivalLane="3o_0" arrivalPos="492.80" arrivalSpeed="10.57" duration="85.00" routeLength="990.53" waitingTime="0.00" waitingCount="0" stopTime="0.00" timeLoss="11.01" rerouteNo="0" devices="tripinfo_WE_173" vType="car" speedFactor="0.96" vaporized=""/>
    <tripinfo id="NS_173" depart="173.00" departLane="2i_0" departPos="4.10" departSpeed="0.00" departDelay="0.00" arrival="258.00" arrivalLane="1o_0" arrivalPos="492.80" arrivalSpeed="10.52" duration="85.00" routeLength="995.90" waitingTime="0.00" waitingCount="0" stopTime="0.00" timeLoss="12.91" rerouteNo="0" devices="tripinfo_NS_173" vType="car" speedFactor="0.98" vaporized=""/>
    <tripinfo id="SN_138" depart="138.00" departLane="3i_0" departPos="4.10" departSpeed="0.00" departDelay="0.00" arrival="263.00" arrivalLane="1o_0" arrivalPos="492.80" arrivalSpeed="10.55" duration="125.00" routeLength="995.70" waitingTime="11.00" waitingCount="3" stopTime="0.00" timeLoss="52.71" rerouteNo="0" devices="tripinfo_SN_138" vType="car" speedFactor="0.99" vaporized=""/>
    <tripinfo id="NS_185" depart="185.00" departLane="2i_0" departPos="4.10" departSpeed="0.00" departDelay="0.00" arrival="265.00" arrivalLane="1o_0" arrivalPos="492.80" arrivalSpeed="10.71" duration="80.00" routeLength="995.90" waitingTime="0.00" waitingCount="0" stopTime="0.00" timeLoss="8.81" rerouteNo="0" devices="tripinfo_NS_185" vType="car" speedFactor="1.00" vaporized=""/>
    <tripinfo id="EW_145" depart="145.00" departLane="4i_0" departPos="4.10" departSpeed="0.00" departDelay="0.00" arrival="267.00" arrivalLane="2o_0" arrivalPos="492.80" arrivalSpeed="8.61" duration="122.00" routeLength="995.70" waitingTime="10.00" waitingCount="3" stopTime="0.00" timeLoss="41.85" rerouteNo="0" devices="tripinfo_EW_145" vType="car" speedFactor="0.88" vaporized=""/>
    <tripinfo id="SN_178" depart="178.00" departLane="3i_0" departPos="4.10" departSpeed="0.00" departDelay="0.00" arrival="268.00" arrivalLane="4o_0" arrivalPos="492.80" arrivalSpeed="9.72" duration="90.00" routeLength="995.90" waitingTime="1.00" waitingCount="1" stopTime="0.00" timeLoss="18.06" rerouteNo="0" devices="tripinfo_SN_178" vType="car" speedFactor="0.98" vaporized=""/>
    <tripinfo id="WE_181" depart="182.00" departLane="1i_0" departPos="4.10" departSpeed="0.00" departDelay="1.00" arrival="269.00" arrivalLane="2o_0" arrivalPos="492.80" arrivalSpeed="10.60" duration="87.00" routeLength="995.90" waitingTime="0.00" waitingCount="0" stopTime="0.00" timeLoss="16.23" rerouteNo="0" devices="tripinfo_WE_181" vType="car" speedFactor="1.01" vaporized=""/>
    <tripinfo id="WE_185" depart="185.00" departLane="1i_0" departPos="4.10" departSpeed="0.00" departDelay="0.00" arrival="270.00" arrivalLane="4o_0" arrivalPos="492.80" arrivalSpeed="11.37" duration="85.00" routeLength="995.70" waitingTime="1.00" waitingCount="1" stopTime="0.00" timeLoss="16.49" rerouteNo="0" devices="tripinfo_WE_185" vType="car" speedFactor="1.03" vaporized=""/>