<?xml version="1.0" encoding="UTF-8"?>

<!-- generated on 2024-05-05 17:14:13 by Eclipse SUMO sumo Version 1.19.0
<configuration xmlns:xsi="http://www.w3.org/2001/XMLSchema-instance" xsi:noNamespaceSchemaLocation="http://sumo.dlr.de/xsd/sumoConfiguration.xsd">

    <input>
        <net-file value="twoone.net.xml"/>
        <route-files value="route_gen.rou.xml"/>
    </input>

    <output>
        <tripinfo-output value="tripinfo_epi273.xml"/>
    </output>

    <report>
        <no-warnings value="true"/>
    </report>

    <traci_server>
        <remote-port value="40809"/>
    </traci_server>

</configuration>
-->

<tripinfos xmlns:xsi="http://www.w3.org/2001/XMLSchema-instance" xsi:noNamespaceSchemaLocation="http://sumo.dlr.de/xsd/tripinfo_file.xsd">
    <tripinfo id="EW_0" depart="0.00" departLane="4i_0" departPos="4.10" departSpeed="0.00" departDelay="0.00" arrival="77.00" arrivalLane="1o_0" arrivalPos="492.80" arrivalSpeed="11.12" duration="77.00" routeLength="990.53" waitingTime="0.00" waitingCount="0" stopTime="0.00" timeLoss="9.85" rerouteNo="0" devices="tripinfo_EW_0" vType="car" speedFactor="1.06" vaporized=""/>
    <tripinfo id="SN_7" depart="7.00" departLane="3i_0" departPos="4.10" departSpeed="0.00" departDelay="0.00" arrival="80.00" arrivalLane="2o_0" arrivalPos="492.80" arrivalSpeed="10.98" duration="73.00" routeLength="990.53" waitingTime="0.00" waitingCount="0" stopTime="0.00" timeLoss="7.70" rerouteNo="0" devices="tripinfo_SN_7" vType="car" speedFactor="1.08" vaporized=""/>
    <tripinfo id="WE_6" depart="6.00" departLane="1i_0" departPos="4.10" departSpeed="0.00" departDelay="0.00" arrival="87.00" arrivalLane="4o_0" arrivalPos="492.80" arrivalSpeed="10.63" duration="81.00" routeLength="995.70" waitingTime="0.00" waitingCount="0" stopTime="0.00" timeLoss="10.91" rerouteNo="0" devices="tripinfo_WE_6" vType="car" speedFactor="1.01" vaporized=""/>
    <tripinfo id="WE_8" depart="9.00" departLane="1i_0" departPos="4.10" departSpeed="0.00" departDelay="1.00" arrival="87.00" arrivalLane="3o_0" arrivalPos="492.80" arrivalSpeed="10.66" duration="78.00" routeLength="990.53" waitingTime="0.00" waitingCount="0" stopTime="0.00" timeLoss="9.01" rerouteNo="0" devices="tripinfo_WE_8" vType="car" speedFactor="1.03" vaporized=""/>
    <tripinfo id="NS_1" depart="1.00" departLane="2i_0" departPos="4.10" departSpeed="0.00" departDelay="0.00" arrival="89.00" arrivalLane="1o_0" arrivalPos="492.80" arrivalSpeed="9.29" duration="88.00" routeLength="995.90" waitingTime="1.00" waitingCount="1" stopTime="0.00" timeLoss="12.12" rerouteNo="0" devices="tripinfo_NS_1" vType="car" speedFactor="0.94" vaporized=""/>
    <tripinfo id="WE_11" depart="11.00" departLane="1i_0" departPos="4.10" departSpeed="0.00" departDelay="0.00" arrival="89.00" arrivalLane="3o_0" arrivalPos="492.80" arrivalSpeed="10.50" duration="78.00" routeLength="990.53" waitingTime="0.00" waitingCount="0" stopTime="0.00" timeLoss="9.88" rerouteNo="0" devices="tripinfo_WE_11" vType="car" speedFactor="1.05" vaporized=""/>
    <tripinfo id="NS_9" depart="9.00" departLane="2i_0" departPos="4.10" departSpeed="0.00" departDelay="0.00" arrival="103.00" arrivalLane="4o_0" arrivalPos="492.80" arrivalSpeed="9.13" duration="94.00" routeLength="990.53" waitingTime="0.00" waitingCount="0" stopTime="0.00" timeLoss="9.01" rerouteNo="0" devices="tripinfo_NS_9" vType="car" speedFactor="0.83" vaporized=""/>
    <tripinfo id="EW_19" depart="19.00" departLane="4i_0" departPos="4.10" departSpeed="0.00" departDelay="0.00" arrival="109.00" arrivalLane="2o_0" arrivalPos="492.80" arrivalSpeed="8.83" duration="90.00" routeLength="995.70" waitingTime="0.00" waitingCount="0" stopTime="0.00" timeLoss="10.13" rerouteNo="0" devices="tripinfo_EW_19" vType="car" speedFactor="0.89" vaporized=""/>
    <tripinfo id="EW_29" depart="29.00" departLane="4i_0" departPos="4.10" departSpeed="0.00" departDelay="0.00" arrival="114.00" arrivalLane="3o_0" arrivalPos="492.80" arrivalSpeed="10.20" duration="85.00" routeLength="995.90" waitingTime="0.00" waitingCount="0" stopTime="0.00" timeLoss="8.81" rerouteNo="0" devices="tripinfo_EW_29" vType="car" speedFactor="0.94" vaporized=""/>
    <tripinfo id="NS_37" depart="37.00" departLane="2i_0" departPos="4.10" departSpeed="0.00" departDelay="0.00" arrival="115.00" arrivalLane="1o_0" arrivalPos="492.80" arrivalSpeed="11.14" duration="78.00" routeLength="995.90" waitingTime="0.00" waitingCount="0" stopTime="0.00" timeLoss="8.49" rerouteNo="0" devices="tripinfo_NS_37" vType="car" speedFactor="1.03" vaporized=""/>
    <tripinfo id="WE_31" depart="31.00" departLane="1i_0" departPos="4.10" departSpeed="0.00" departDelay="0.00" arrival="125.00" arrivalLane="3o_0" arrivalPos="492.80" arrivalSpeed="9.20" duration="94.00" routeLength="990.53" waitingTime="1.00" waitingCount="1" stopTime="0.00" timeLoss="11.60" rerouteNo="0" devices="tripinfo_WE_31" vType="car" speedFactor="0.86" vaporized=""/>
    <tripinfo id="WE_44" depart="44.00" departLane="1i_0" departPos="4.10" departSpeed="0.00" departDelay="0.00" arrival="125.00" arrivalLane="4o_0" arrivalPos="492.80" arrivalSpeed="10.63" duration="81.00" routeLength="995.70" waitingTime="0.00" waitingCount="0" stopTime="0.00" timeLoss="9.47" rerouteNo="0" devices="tripinfo_WE_44" vType="car" speedFactor="0.99" vaporized=""/>
    <tripinfo id="EW_40" depart="40.00" departLane="4i_0" departPos="10.10" departSpeed="0.00" departDelay="0.00" arrival="126.00" arrivalLane="2o_0" arrivalPos="492.80" arrivalSpeed="11.18" duration="86.00" routeLength="989.70" waitingTime="0.00" waitingCount="0" stopTime="0.00" timeLoss="17.26" rerouteNo="0" devices="tripinfo_EW_40" vType="truck" speedFactor="1.02" vaporized=""/>
    <tripinfo id="WE_34" depart="34.00" departLane="1i_0" departPos="4.10" departSpeed="0.00" departDelay="0.00" arrival="127.00" arrivalLane="3o_0" arrivalPos="492.80" arrivalSpeed="11.11" duration="93.00" routeLength="990.53" waitingTime="0.00" waitingCount="0" stopTime="0.00" timeLoss="28.11" rerouteNo="0" devices="tripinfo_WE_34" vType="car" speedFactor="1.09" vaporized=""/>
    <tripinfo id="EW_43" depart="44.00" departLane="4i_0" departPos="4.10" departSpeed="0.00" departDelay="1.00" arrival="129.00" arrivalLane="3o_0" arrivalPos="492.80" arrivalSpeed="12.24" duration="85.00" routeLength="995.90" waitingTime="0.00" waitingCount="0" stopTime="0.00" timeLoss="21.27" rerouteNo="0" devices="tripinfo_EW_43" vType="car" speedFactor="1.12" vaporized=""/>
    <tripinfo id="SN_54" depart="54.00" departLane="3i_0" departPos="4.10" departSpeed="0.00" departDelay="0.00" arrival="138.00" arrivalLane="4o_0" arrivalPos="492.80" arrivalSpeed="9.68" duration="84.00" routeLength="995.90" waitingTime="0.00" waitingCount="0" stopTime="0.00" timeLoss="8.00" rerouteNo="0" devices="tripinfo_SN_54" vType="car" speedFactor="0.94" vaporized=""/>
    <tripinfo id="WE_50" depart="50.00" departLane="1i_0" departPos="4.10" departSpeed="0.00" departDelay="0.00" arrival="140.00" arrivalLane="3o_0" arrivalPos="492.80" arrivalSpeed="9.24" duration="90.00" routeLength="990.53" waitingTime="0.00" waitingCount="0" stopTime="0.00" timeLoss="9.59" rerouteNo="0" devices="tripinfo_WE_50" vType="car" speedFactor="0.88" vaporized=""/>
    <tripinfo id="EW_44" depart="47.00" departLane="4i_0" departPos="4.10" departSpeed="0.00" departDelay="3.00" arrival="141.00" arrivalLane="2o_0" arrivalPos="492.80" arrivalSpeed="9.40" duration="94.00" routeLength="995.70" waitingTime="0.00" waitingCount="0" stopTime="0.00" timeLoss="17.39" rerouteNo="0" devices="tripinfo_EW_44" vType="car" speedFactor="0.93" vaporized=""/>
    <tripinfo id="WE_52" depart="52.00" departLane="1i_0" departPos="4.10" departSpeed="0.00" departDelay="0.00" arrival="143.00" arrivalLane="2o_0" arrivalPos="492.80" arrivalSpeed="10.13" duration="91.00" routeLength="995.90" waitingTime="0.00" waitingCount="0" stopTime="0.00" timeLoss="15.51" rerouteNo="0" devices="tripinfo_WE_52" vType="car" speedFactor="0.94" vaporized=""/>
    <tripinfo id="NS_64" depart="64.00" departLane="2i_0" departPos="4.10" departSpeed="0.00" departDelay="0.00" arrival="143.00" arrivalLane="4o_0" arrivalPos="492.80" arrivalSpeed="10.92" duration="79.00" routeLength="990.53" waitingTime="0.00" waitingCount="0" stopTime="0.00" timeLoss="8.64" rerouteNo="0" devices="tripinfo_NS_64" vType="car" speedFactor="1.01" vaporized=""/>
    <tripinfo id="WE_60" depart="60.00" departLane="1i_0" departPos="4.10" departSpeed="0.00" departDelay="0.00" arrival="144.00" arrivalLane="4o_0" arrivalPos="492.80" arrivalSpeed="11.74" duration="84.00" routeLength="995.70" waitingTime="3.00" waitingCount="1" stopTime="0.00" timeLoss="22.93" rerouteNo="0" devices="tripinfo_WE_60" vType="car" speedFactor="1.16" vaporized=""/>
    <tripinfo id="WE_63" depart="63.00" departLane="1i_0" departPos="4.10" departSpeed="0.00" departDelay="0.00" arrival="149.00" arrivalLane="3o_0" arrivalPos="492.80" arrivalSpeed="11.01" duration="86.00" routeLength="990.53" waitingTime="1.00" waitingCount="1" stopTime="0.00" timeLoss="16.20" rerouteNo="0" devices="tripinfo_WE_63" vType="car" speedFactor="1.02" vaporized=""/>
    <tripinfo id="SN_64" depart="64.00" departLane="3i_0" departPos="4.10" departSpeed="0.00" departDelay="0.00" arrival="153.00" arrivalLane="4o_0" arrivalPos="492.80" arrivalSpeed="9.69" duration="89.00" routeLength="995.90" waitingTime="4.00" waitingCount="1" stopTime="0.00" timeLoss="16.34" rerouteNo="0" devices="tripinfo_SN_64" vType="car" speedFactor="0.97" vaporized=""/>
    <tripinfo id="WE_74" depart="74.00" departLane="1i_0" departPos="4.10" departSpeed="0.00" departDelay="0.00" arrival="164.00" arrivalLane="2o_0" arrivalPos="492.80" arrivalSpeed="9.40" duration="90.00" routeLength="995.90" waitingTime="0.00" waitingCount="0" stopTime="0.00" timeLoss="8.70" rerouteNo="0" devices="tripinfo_WE_74" vType="car" speedFactor="0.87" vaporized=""/>
    <tripinfo id="SN_76" depart="76.00" departLane="3i_0" departPos="4.10" departSpeed="0.00" departDelay="0.00" arrival="168.00" arrivalLane="1o_0" arrivalPos="492.80" arrivalSpeed="9.86" duration="92.00" routeLength="995.70" waitingTime="0.00" waitingCount="0" stopTime="0.00" timeLoss="14.51" rerouteNo="0" devices="tripinfo_SN_76" vType="car" speedFactor="0.92" vaporized=""/>
    <tripinfo id="EW_88" depart="90.00" departLane="4i_0" departPos="4.10" departSpeed="0.00" departDelay="2.00" arrival="169.00" arrivalLane="1o_0" arrivalPos="492.80" arrivalSpeed="11.51" duration="79.00" routeLength="990.53" waitingTime="0.00" waitingCount="0" stopTime="0.00" timeLoss="19.37" rerouteNo="0" devices="tripinfo_EW_88" vType="car" speedFactor="1.18" vaporized=""/>
    <tripinfo id="EW_71" depart="71.00" departLane="4i_0" departPos="4.10" departSpeed="0.00" departDelay="0.00" arrival="170.00" arrivalLane="2o_0" arrivalPos="492.80" arrivalSpeed="9.03" duration="99.00" routeLength="995.70" waitingTime="6.00" waitingCount="2" stopTime="0.00" timeLoss="18.98" rerouteNo="0" devices="tripinfo_EW_71" vType="car" speedFactor="0.89" vaporized=""/>
    <tripinfo id="SN_72" depart="72.00" departLane="3i_0" departPos="4.10" departSpeed="0.00" departDelay="0.00" arrival="171.00" arrivalLane="4o_0" arrivalPos="492.80" arrivalSpeed="9.08" duration="99.00" routeLength="995.90" waitingTime="0.00" waitingCount="0" stopTime="0.00" timeLoss="13.16" rerouteNo="0" devices="tripinfo_SN_72" vType="car" speedFactor="0.83" vaporized=""/>
    <tripinfo id="SN_88" depart="89.00" departLane="3i_0" departPos="4.10" departSpeed="0.00" departDelay="1.00" arrival="171.00" arrivalLane="1o_0" arrivalPos="492.80" arrivalSpeed="12.54" duration="82.00" routeLength="995.70" waitingTime="5.00" waitingCount="1" stopTime="0.00" timeLoss="20.52" rerouteNo="0" devices="tripinfo_SN_88" vType="car" speedFactor="1.15" vaporized=""/>
    <tripinfo id="NS_78" depart="80.00" departLane="2i_0" departPos="4.10" departSpeed="0.00" departDelay="2.00" arrival="173.00" arrivalLane="4o_0" arrivalPos="492.80" arrivalSpeed="10.45" duration="93.00" routeLength="990.53" waitingTime="0.00" waitingCount="0" stopTime="0.00" timeLoss="18.44" rerouteNo="0" devices="tripinfo_NS_78" vType="car" speedFactor="0.95" vaporized=""/>
    <tripinfo id="WE_81" depart="81.00" departLane="1i_0" departPos="4.10" departSpeed="0.00" departDelay="0.00" arrival="175.00" arrivalLane="4o_0" arrivalPos="492.80" arrivalSpeed="11.40" duration="94.00" routeLength="995.70" waitingTime="5.00" waitingCount="1" stopTime="0.00" timeLoss="30.93" rerouteNo="0" devices="tripinfo_WE_81" vType="car" speedFactor="1.13" vaporized=""/>
    <tripinfo id="EW_87" depart="87.00" departLane="4i_0" departPos="4.10" departSpeed="0.00" departDelay="0.00" arrival="176.00" arrivalLane="3o_0" arrivalPos="492.80" arrivalSpeed="10.33" duration="89.00" routeLength="995.90" waitingTime="1.00" waitingCount="1" stopTime="0.00" timeLoss="12.43" rerouteNo="0" devices="tripinfo_EW_87" vType="car" speedFactor="0.93" vaporized=""/>
    <tripinfo id="NS_101" depart="101.00" departLane="2i_0" departPos="4.10" departSpeed="0.00" departDelay="0.00" arrival="179.00" arrivalLane="3o_0" arrivalPos="492.80" arrivalSpeed="12.59" duration="78.00" routeLength="995.70" waitingTime="2.00" waitingCount="2" stopTime="0.00" timeLoss="17.01" rerouteNo="0" devices="tripinfo_NS_101" vType="car" speedFactor="1.17" vaporized=""/>
    <tripinfo id="SN_101" depart="101.00" departLane="3i_0" departPos="4.10" departSpeed="0.00" departDelay="0.00" arrival="180.00" arrivalLane="2o_0" arrivalPos="492.80" arrivalSpeed="9.82" duration="79.00" routeLength="990.53" waitingTime="0.00" waitingCount="0" stopTime="0.00" timeLoss="8.10" rerouteNo="0" devices="tripinfo_SN_101" vType="car" speedFactor="0.99" vaporized=""/>
    <tripinfo id="EW_96" depart="96.00" departLane="4i_0" departPos="4.10" departSpeed="0.00" departDelay="0.00" arrival="182.00" arrivalLane="2o_0" arrivalPos="492.80" arrivalSpeed="10.37" duration="86.00" routeLength="995.70" waitingTime="2.00" waitingCount="1" stopTime="0.00" timeLoss="15.33" rerouteNo="0" devices="tripinfo_EW_96" vType="car" speedFactor="1.01" vaporized=""/>
    <tripinfo id="SN_110" depart="110.00" departLane="3i_0" departPos="4.10" departSpeed="0.00" departDelay="0.00" arrival="182.00" arrivalLane="1o_0" arrivalPos="492.80" arrivalSpeed="12.55" duration="72.00" routeLength="995.70" waitingTime="0.00" waitingCount="0" stopTime="0.00" timeLoss="11.37" rerouteNo="0" devices="tripinfo_SN_110" vType="car" speedFactor="1.18" vaporized=""/>
    <tripinfo id="NS_106" depart="106.00" departLane="2i_0" departPos="4.10" departSpeed="0.00" departDelay="0.00" arrival="186.00" arrivalLane="3o_0" arrivalPos="492.80" arrivalSpeed="10.68" duration="80.00" routeLength="995.70" waitingTime="0.00" waitingCount="0" stopTime="0.00" timeLoss="10.36" rerouteNo="0" devices="tripinfo_NS_106" vType="car" speedFactor="1.02" vaporized=""/>
    <tripinfo id="NS_109" depart="109.00" departLane="2i_0" departPos="4.10" departSpeed="0.00" departDelay="0.00" arrival="190.00" arrivalLane="4o_0" arrivalPos="492.80" arrivalSpeed="10.25" duration="81.00" routeLength="990.53" waitingTime="0.00" waitingCount="0" stopTime="0.00" timeLoss="8.68" rerouteNo="0" devices="tripinfo_NS_109" vType="car" speedFactor="0.97" vaporized=""/>
    <tripinfo id="WE_111" depart="111.00" departLane="1i_0" departPos="4.10" departSpeed="0.00" departDelay="0.00" arrival="192.00" arrivalLane="4o_0" arrivalPos="492.80" arrivalSpeed="11.39" duration="81.00" routeLength="995.70" waitingTime="0.00" waitingCount="0" stopTime="0.00" timeLoss="16.67" rerouteNo="0" devices="tripinfo_WE_111" vType="car" speedFactor="1.10" vaporized=""/>
    <tripinfo id="NS_119" depart="119.00" departLane="2i_0" departPos="4.10" departSpeed="0.00" departDelay="0.00" arrival="199.00" arrivalLane="1o_0" arrivalPos="492.80" arrivalSpeed="10.30" duration="80.00" routeLength="995.90" waitingTime="1.00" waitingCount="1" stopTime="0.00" timeLoss="11.34" rerouteNo="0" devices="tripinfo_NS_119" vType="car" speedFactor="1.03" vaporized=""/>
    <tripinfo id="WE_124" depart="124.00" departLane="1i_0" departPos="4.10" departSpeed="0.00" departDelay="0.00" arrival="203.00" arrivalLane="4o_0" arrivalPos="492.80" arrivalSpeed="11.89" duration="79.00" routeLength="995.70" waitingTime="1.00" waitingCount="1" stopTime="0.00" timeLoss="13.58" rerouteNo="0" devices="tripinfo_WE_124" vType="car" speedFactor="1.09" vaporized=""/>
    <tripinfo id="EW_114" depart="114.00" departLane="4i_0" departPos="4.10" departSpeed="0.00" departDelay="0.00" arrival="204.00" arrivalLane="2o_0" arrivalPos="492.80" arrivalSpeed="9.12" duration="90.00" routeLength="995.70" waitingTime="0.00" waitingCount="0" stopTime="0.00" timeLoss="10.76" rerouteNo="0" devices="tripinfo_EW_114" vType="car" speedFactor="0.90" vaporized=""/>
    <tripinfo id="EW_122" depart="122.00" departLane="4i_0" departPos="4.10" departSpeed="0.00" departDelay="0.00" arrival="207.00" arrivalLane="2o_0" arrivalPos="492.80" arrivalSpeed="10.32" duration="85.00" routeLength="995.70" waitingTime="0.00" waitingCount="0" stopTime="0.00" timeLoss="10.39" rerouteNo="0" devices="tripinfo_EW_122" vType="car" speedFactor="0.96" vaporized=""/>
    <tripinfo id="EW_125" depart="125.00" departLane="4i_0" departPos="4.10" departSpeed="0.00" departDelay="0.00" arrival="208.00" arrivalLane="2o_0" arrivalPos="492.80" arrivalSpeed="11.00" duration="83.00" routeLength="995.70" waitingTime="0.00" waitingCount="0" stopTime="0.00" timeLoss="14.95" rerouteNo="0" devices="tripinfo_EW_125" vType="car" speedFactor="1.04" vaporized=""/>
    <tripinfo id="WE_135" depart="135.00" departLane="1i_0" departPos="4.10" departSpeed="0.00" departDelay="0.00" arrival="212.00" arrivalLane="2o_0" arrivalPos="492.80" arrivalSpeed="11.45" duration="77.00" routeLength="995.90" waitingTime="2.00" waitingCount="1" stopTime="0.00" timeLoss="11.54" rerouteNo="0" devices="tripinfo_WE_135" vType="car" speedFactor="1.09" vaporized=""/>
    <tripinfo id="NS_134" depart="134.00" departLane="2i_0" departPos="4.10" departSpeed="0.00" departDelay="0.00" arrival="218.00" arrivalLane="3o_0" arrivalPos="492.80" arrivalSpeed="11.56" duration="84.00" routeLength="995.70" waitingTime="2.00" waitingCount="1" stopTime="0.00" timeLoss="16.01" rerouteNo="0" devices="tripinfo_NS_134" vType="car" speedFactor="1.04" vaporized=""/>
    <tripinfo id="NS_135" depart="137.00" departLane="2i_0" departPos="4.10" departSpeed="0.00" departDelay="2.00" arrival="223.00" arrivalLane="3o_0" arrivalPos="492.80" arrivalSpeed="11.05" duration="86.00" routeLength="995.70" waitingTime="0.00" waitingCount="0" stopTime="0.00" timeLoss="15.21" rerouteNo="0" devices="tripinfo_NS_135" vType="car" speedFactor="1.00" vaporized=""/>
    <tripinfo id="SN_143" depart="143.00" departLane="3i_0" departPos="4.10" departSpeed="0.00" departDelay="0.00" arrival="231.00" arrivalLane="2o_0" arrivalPos="492.80" arrivalSpeed="8.90" duration="88.00" routeLength="990.53" waitingTime="0.00" waitingCount="0" stopTime="0.00" timeLoss="9.31" rerouteNo="0" devices="tripinfo_SN_143" vType="car" speedFactor="0.90" vaporized=""/>
    <tripinfo id="WE_144" depart="144.00" departLane="1i_0" departPos="4.10" departSpeed="0.00" departDelay="0.00" arrival="234.00" arrivalLane="3o_0" arrivalPos="492.80" arrivalSpeed="9.64" duration="90.00" routeLength="990.53" waitingTime="0.00" waitingCount="0" stopTime="0.00" timeLoss="9.21" rerouteNo="0" devices="tripinfo_WE_144" vType="car" speedFactor="0.88" vaporized=""/>
    <tripinfo id="NS_155" depart="155.00" departLane="2i_0" departPos="4.10" departSpeed="0.00" departDelay="0.00" arrival="236.00" arrivalLane="3o_0" arrivalPos="492.80" arrivalSpeed="12.52" duration="81.00" routeLength="995.70" waitingTime="0.00" waitingCount="0" stopTime="0.00" timeLoss="19.78" rerouteNo="0" devices="tripinfo_NS_155" vType="car" speedFactor="1.17" vaporized=""/>
    <tripinfo id="EW_163" depart="163.00" departLane="4i_0" departPos="4.10" departSpeed="0.00" departDelay="0.00" arrival="242.00" arrivalLane="3o_0" arrivalPos="492.80" arrivalSpeed="10.96" duration="79.00" routeLength="995.90" waitingTime="0.00" waitingCount="0" stopTime="0.00" timeLoss="7.95" rerouteNo="0" devices="tripinfo_EW_163" vType="car" speedFactor="1.00" vaporized=""/>
    <tripinfo id="WE_145" depart="147.00" departLane="1i_0" departPos="4.10" departSpeed="0.00" departDelay="2.00" arrival="246.00" arrivalLane="4o_0" arrivalPos="492.80" arrivalSpeed="8.33" duration="99.00" routeLength="995.70" waitingTime="1.00" waitingCount="1" stopTime="0.00" timeLoss="15.42" rerouteNo="0" devices="tripinfo_WE_145" vType="car" speedFactor="0.85" vaporized=""/>
    <tripinfo id="WE_149" depart="150.00" departLane="1i_0" departPos="4.10" departSpeed="0.00" departDelay="1.00" arrival="248.00" arrivalLane="4o_0" arrivalPos="492.80" arrivalSpeed="8.98" duration="98.00" routeLength="995.70" waitingTime="0.00" waitingCount="0" stopTime="0.00" timeLoss="14.72" rerouteNo="0" devices="tripinfo_WE_149" vType="car" speedFactor="0.85" vaporized=""/>
    <tripinfo id="NS_172" depart="172.00" departLane="2i_0" departPos="4.10" departSpeed="0.00" departDelay="0.00" arrival="250.00" arrivalLane="4o_0" arrivalPos="492.80" arrivalSpeed="11.08" duration="78.00" routeLength="990.53" waitingTime="0.00" waitingCount="0" stopTime="0.00" timeLoss="15.63" rerouteNo="0" devices="tripinfo_NS_172" vType="car" speedFactor="1.14" vaporized=""/>
    <tripinfo id="NS_173" depart="175.00" departLane="2i_0" departPos="4.10" departSpeed="0.00" departDelay="2.00" arrival="252.00" arrivalLane="1o_0" arrivalPos="492.80" arrivalSpeed="10.62" duration="77.00" routeLength="995.90" waitingTime="0.00" waitingCount="0" stopTime="0.00" timeLoss="7.75" rerouteNo="0" devices="tripinfo_NS_173" vType="car" speedFactor="1.02" vaporized=""/>
    <tripinfo id="NS_178" depart="178.00" departLane="2i_0" departPos="4.10" departSpeed="0.00" departDelay="0.00" arrival="254.00" arrivalLane="1o_0" arrivalPos="492.80" arrivalSpeed="12.07" duration="76.00" routeLength="995.90" waitingTime="0.00" waitingCount="0" stopTime="0.00" timeLoss="12.03" rerouteNo="0" devices="tripinfo_NS_178" vType="car" speedFactor="1.12" vaporized=""/>
    <tripinfo id="NS_184" depart="184.00" departLane="2i_0" departPos="4.10" departSpeed="0.00" departDelay="0.00" arrival="266.00" arrivalLane="3o_0" arrivalPos="492.80" arrivalSpeed="10.21" duration="82.00" routeLength="995.70" waitingTime="0.00" waitingCount="0" stopTime="0.00" timeLoss="9.88" rerouteNo="0" devices="tripinfo_NS_184" vType="car" speedFactor="0.99" vaporized=""/>
    <tripinfo id="NS_198" depart="198.00" departLane="2i_0" departPos="4.10" departSpeed="0.00" departDelay="0.00" arrival="276.00" arrivalLane="1o_0" arrivalPos="492.80" arrivalSpeed="11.16" duration="78.00" routeLength="995.90" waitingTime="0.00" waitingCount="0" stopTime="0.00" timeLoss="7.96" rerouteNo="0" devices="tripinfo_NS_198" vType="car" speedFactor="1.02" vaporized=""/>
    <tripinfo id="NS_187" depart="187.00" departLane="2i_0" departPos="4.10" departSpeed="0.00" departDelay="0.00" arrival="277.00" arrivalLane="4o_0" arrivalPos="492.80" arrivalSpeed="9.02" duration="90.00" routeLength="990.53" waitingTime="0.00" waitingCount="0" stopTime="0.00" timeLoss="9.74" rerouteNo="0" devices="tripinfo_NS_187" vType="car" speedFactor="0.88" vaporized=""/>
    <tripinfo id="EW_178" depart="178.00" departLane="4i_0" departPos="10.10" departSpeed="0.00" departDelay="0.00" arrival="281.00" arrivalLane="1o_0" arrivalPos="492.80" arrivalSpeed="11.11" duration="103.00" routeLength="984.53" waitingTime="14.00" waitingCount="1" stopTime="0.00" timeLoss="35.14" rerouteNo="0" devices="tripinfo_EW_178" vType="truck" speedFactor="1.04" vaporized=""/>
    <tripinfo id="SN_166" depart="166.00" departLane="3i_0" departPos="4.10" departSpeed="0.00" departDelay="0.00" arrival="282.00" arrivalLane="2o_0" arrivalPos="492.80" arrivalSpeed="10.81" duration="116.00" routeLength="990.53" waitingTime="34.00" waitingCount="1" stopTime="0.00" timeLoss="44.75" rerouteNo="0" devices="tripinfo_SN_166" vType="car" speedFactor="1.00" vaporized=""/>
    <tripinfo id="WE_159" depart="159.00" departLane="1i_0" departPos="10.10" departSpeed="0.00" departDelay="0.00" arrival="283.00" arrivalLane="4o_0" arrivalPos="492.80" arrivalSpeed="10.78" duration="124.00" routeLength="989.70" waitingTime="32.00" waitingCount="1" stopTime="0.00" timeLoss="53.93" rerouteNo="0" devices="tripinfo_WE_159" vType="truck" speedFactor="1.01" vaporized=""/>
    <tripinfo id="NS_202" depart="204.00" departLane="2i_0" departPos="4.10" departSpeed="0.00" departDelay="2.00" arrival="288.00" arrivalLane="1o_0" arrivalPos="492.80" arrivalSpeed="9.66" duration="84.00" routeLength="995.90" waitingTime="0.00" waitingCount="0" stopTime="0.00" timeLoss="10.77" rerouteNo="0" devices="tripinfo_NS_202" vType="car" speedFactor="0.97" vaporized=""/>
    <tripinfo id="SN_174" depart="176.00" departLane="3i_0" departPos="4.10" departSpeed="0.00" departDelay="2.00" arrival="290.00" arrivalLane="1o_0" arrivalPos="492.80" arrivalSpeed="10.41" duration="114.00" routeLength="995.70" waitingTime="24.00" waitingCount="2" stopTime="0.00" timeLoss="41.14" rerouteNo="0" devices="tripinfo_SN_174" vType="car" speedFactor="0.97" vaporized=""/>
    <tripinfo id="EW_179" depart="182.00" departLane="4i_0" departPos="4.10" departSpeed="0.00" departDelay="3.00" arrival="291.00" arrivalLane="3o_0" arrivalPos="492.80" arrivalSpeed="10.93" duration="109.00" routeLength="995.90" waitingTime="15.00" waitingCount="2" stopTime="0.00" timeLoss="39.15" rerouteNo="0" devices="tripinfo_EW_179" vType="car" speedFactor="1.02" vaporized=""/>
    <tripinfo id="SN_185" depart="186.00" departLane="3i_0" departPos="4.10" departSpeed="0.00" departDelay="1.00" arrival="293.00" arrivalLane="2o_0" arrivalPos="492.80" arrivalSpeed="9.92" duration="107.00" routeLength="990.53" waitingTime="15.00" waitingCount="2" stopTime="0.00" timeLoss="31.60" rerouteNo="0" devices="tripinfo_SN_185" vType="car" speedFactor="0.94" vaporized=""/>
    <tripinfo id="NS_203" depart="208.00" departLane="2i_0" departPos="4.10" departSpeed="0.00" departDelay="5.00" arrival="295.00" arrivalLane="4o_0" arrivalPos="492.80" arrivalSpeed="9.90" duration="87.00" routeLength="990.53" waitingTime="1.00" waitingCount="1" stopTime="0.00" timeLoss="11.42" rerouteNo="0" devices="tripinfo_NS_203" vType="car" speedFactor="0.94" vaporized=""/>
    <tripinfo id="NS_213" depart="213.00" departLane="2i_0" departPos="4.10" departSpeed="0.00" departDelay="0.00" arrival="296.00" arrivalLane="1o_0" arrivalPos="492.80" arrivalSpeed="10.54" duration="83.00" routeLength="995.90" waitingTime="0.00" waitingCount="0" stopTime="0.00" timeLoss="11.31" rerouteNo="0" devices="tripinfo_NS_213" vType="car" speedFactor="0.98" vaporized=""/>
    <tripinfo id="WE_161" depart="163.00" departLane="1i_0" departPos="4.10" departSpeed="0.00" departDelay="2.00" arrival="297.00" arrivalLane="4o_0" arrivalPos="492.80" arrivalSpeed="10.88" duration="134.00" routeLength="995.70" waitingTime="44.00" waitingCount="2" stopTime="0.00" timeLoss="69.13" rerouteNo="0" devices="tripinfo_WE_161" vType="car" speedFactor="1.10" vaporized=""/>
    <tripinfo id="EW_220" depart="220.00" departLane="4i_0" departPos="4.10" departSpeed="0.00" departDelay="0.00" arrival="298.00" arrivalLane="1o_0" arrivalPos="492.80" arrivalSpeed="10.80" duration="78.00" routeLength="990.53" waitingTime="0.00" waitingCount="0" stopTime="0.00" timeLoss="13.19" rerouteNo="0" devices="tripinfo_EW_220" vType="car" speedFactor="1.09" vaporized=""/>
    <tripinfo id="EW_192" depart="192.00" departLane="4i_0" departPos="4.10" departSpeed="0.00" departDelay="0.00" arrival="299.00" arrivalLane="3o_0" arrivalPos="492.80" arrivalSpeed="9.72" duration="107.00" routeLength="995.90" waitingTime="6.00" waitingCount="2" stopTime="0.00" timeLoss="28.94" rerouteNo="0" devices="tripinfo_EW_192" vType="car" speedFactor="0.91" vaporized=""/>
    <tripinfo id="WE_171" depart="171.00" departLane="1i_0" departPos="4.10" departSpeed="0.00" departDelay="0.00" arrival="308.00" arrivalLane="3o_0" arrivalPos="492.80" arrivalSpeed="9.64" duration="137.00" routeLength="990.53" waitingTime="40.00" waitingCount="2" stopTime="0.00" timeLoss="58.80" rerouteNo="0" devices="tripinfo_WE_171" vType="car" speedFactor="0.90" vaporized=""/>
    <tripinfo id="WE_196" depart="196.00" departLane="1i_0" departPos="4.10" departSpeed="0.00" departDelay="0.00" arrival="310.00" arrivalLane="3o_0" arrivalPos="492.80" arrivalSpeed="10.73" duration="114.00" routeLength="990.53" waitingTime="15.00" waitingCount="2" stopTime="0.00" timeLoss="46.06" rerouteNo="0" devices="tripinfo_WE_196" vType="car" speedFactor="1.04" vaporized=""/>
    <tripinfo id="WE_212" depart="212.00" departLane="1i_0" departPos="4.10" departSpeed="0.00" departDelay="0.00" arrival="310.00" arrivalLane="2o_0" arrivalPos="492.80" arrivalSpeed="10.07" duration="98.00" routeLength="995.90" waitingTime="8.00" waitingCount="1" stopTime="0.00" timeLoss="23.77" rerouteNo="0" devices="tripinfo_WE_212" vType="car" speedFactor="0.96" vaporized=""/>
    <tripinfo id="WE_216" depart="216.00" departLane="1i_0" departPos="4.10" departSpeed="0.00" departDelay="0.00" arrival="312.00" arrivalLane="3o_0" arrivalPos="492.80" arrivalSpeed="9.92" duration="96.00" routeLength="990.53" waitingTime="5.00" waitingCount="1" stopTime="0.00" timeLoss="23.91" rerouteNo="0" devices="tripinfo_WE_216" vType="car" speedFactor="0.98" vaporized=""/>
    <tripinfo id="WE_220" depart="220.00" departLane="1i_0" departPos="4.10" departSpeed="0.00" departDelay="0.00" arrival="312.00" arrivalLane="2o_0" arrivalPos="492.80" arrivalSpeed="11.03" duration="92.00" routeLength="995.90" waitingTime="3.00" waitingCount="1" stopTime="0.00" timeLoss="21.19" rerouteNo="0" devices="tripinfo_WE_220" vType="car" speedFactor="1.01" vaporized=""/>