<?xml version="1.0" encoding="UTF-8"?>

<!-- generated on 2024-05-05 17:11:51 by Eclipse SUMO sumo Version 1.19.0
<configuration xmlns:xsi="http://www.w3.org/2001/XMLSchema-instance" xsi:noNamespaceSchemaLocation="http://sumo.dlr.de/xsd/sumoConfiguration.xsd">

    <input>
        <net-file value="twoone.net.xml"/>
        <route-files value="route_gen.rou.xml"/>
    </input>

    <output>
        <tripinfo-output value="tripinfo_epi267.xml"/>
    </output>

    <report>
        <no-warnings value="true"/>
    </report>

    <traci_server>
        <remote-port value="48623"/>
    </traci_server>

</configuration>
-->

<tripinfos xmlns:xsi="http://www.w3.org/2001/XMLSchema-instance" xsi:noNamespaceSchemaLocation="http://sumo.dlr.de/xsd/tripinfo_file.xsd">
    <tripinfo id="EW_1" depart="1.00" departLane="4i_0" departPos="4.10" departSpeed="0.00" departDelay="0.00" arrival="77.00" arrivalLane="1o_0" arrivalPos="492.80" arrivalSpeed="11.72" duration="76.00" routeLength="990.53" waitingTime="0.00" waitingCount="0" stopTime="0.00" timeLoss="8.89" rerouteNo="0" devices="tripinfo_EW_1" vType="car" speedFactor="1.06" vaporized=""/>
    <tripinfo id="EW_7" depart="7.00" departLane="4i_0" departPos="4.10" departSpeed="0.00" departDelay="0.00" arrival="88.00" arrivalLane="1o_0" arrivalPos="492.80" arrivalSpeed="11.62" duration="81.00" routeLength="990.53" waitingTime="1.00" waitingCount="1" stopTime="0.00" timeLoss="15.70" rerouteNo="0" devices="tripinfo_EW_7" vType="car" speedFactor="1.08" vaporized=""/>
    <tripinfo id="WE_9" depart="9.00" departLane="1i_0" departPos="4.10" departSpeed="0.00" departDelay="0.00" arrival="88.00" arrivalLane="4o_0" arrivalPos="492.80" arrivalSpeed="10.97" duration="79.00" routeLength="995.70" waitingTime="0.00" waitingCount="0" stopTime="0.00" timeLoss="9.84" rerouteNo="0" devices="tripinfo_WE_9" vType="car" speedFactor="1.03" vaporized=""/>
    <tripinfo id="SN_5" depart="5.00" departLane="3i_0" departPos="10.10" departSpeed="0.00" departDelay="0.00" arrival="89.00" arrivalLane="2o_0" arrivalPos="492.80" arrivalSpeed="11.11" duration="84.00" routeLength="984.53" waitingTime="0.00" waitingCount="0" stopTime="0.00" timeLoss="14.31" rerouteNo="0" devices="tripinfo_SN_5" vType="truck" speedFactor="1.01" vaporized=""/>
    <tripinfo id="EW_4" depart="4.00" departLane="4i_0" departPos="4.10" departSpeed="0.00" departDelay="0.00" arrival="90.00" arrivalLane="3o_0" arrivalPos="492.80" arrivalSpeed="9.67" duration="86.00" routeLength="995.90" waitingTime="0.00" waitingCount="0" stopTime="0.00" timeLoss="9.80" rerouteNo="0" devices="tripinfo_EW_4" vType="car" speedFactor="0.94" vaporized=""/>
    <tripinfo id="EW_14" depart="14.00" departLane="4i_0" departPos="4.10" departSpeed="0.00" departDelay="0.00" arrival="91.00" arrivalLane="1o_0" arrivalPos="492.80" arrivalSpeed="11.40" duration="77.00" routeLength="990.53" waitingTime="0.00" waitingCount="0" stopTime="0.00" timeLoss="9.62" rerouteNo="0" devices="tripinfo_EW_14" vType="car" speedFactor="1.05" vaporized=""/>
    <tripinfo id="EW_18" depart="18.00" departLane="4i_0" departPos="4.10" departSpeed="0.00" departDelay="0.00" arrival="108.00" arrivalLane="3o_0" arrivalPos="492.80" arrivalSpeed="8.68" duration="90.00" routeLength="995.90" waitingTime="0.00" waitingCount="0" stopTime="0.00" timeLoss="9.65" rerouteNo="0" devices="tripinfo_EW_18" vType="car" speedFactor="0.89" vaporized=""/>
    <tripinfo id="WE_31" depart="31.00" departLane="1i_0" departPos="4.10" departSpeed="0.00" departDelay="0.00" arrival="109.00" arrivalLane="3o_0" arrivalPos="492.80" arrivalSpeed="11.52" duration="78.00" routeLength="990.53" waitingTime="0.00" waitingCount="0" stopTime="0.00" timeLoss="13.37" rerouteNo="0" devices="tripinfo_WE_31" vType="car" speedFactor="1.09" vaporized=""/>
    <tripinfo id="WE_14" depart="14.00" departLane="1i_0" departPos="4.10" departSpeed="0.00" departDelay="0.00" arrival="110.00" arrivalLane="4o_0" arrivalPos="492.80" arrivalSpeed="8.57" duration="96.00" routeLength="995.70" waitingTime="0.00" waitingCount="0" stopTime="0.00" timeLoss="10.18" rerouteNo="0" devices="tripinfo_WE_14" vType="car" speedFactor="0.83" vaporized=""/>
    <tripinfo id="WE_20" depart="20.00" departLane="1i_0" departPos="4.10" departSpeed="0.00" departDelay="0.00" arrival="111.00" arrivalLane="4o_0" arrivalPos="492.80" arrivalSpeed="10.39" duration="91.00" routeLength="995.70" waitingTime="0.00" waitingCount="0" stopTime="0.00" timeLoss="15.55" rerouteNo="0" devices="tripinfo_WE_20" vType="car" speedFactor="0.94" vaporized=""/>
    <tripinfo id="NS_33" depart="33.00" departLane="2i_0" departPos="4.10" departSpeed="0.00" departDelay="0.00" arrival="113.00" arrivalLane="4o_0" arrivalPos="492.80" arrivalSpeed="10.53" duration="80.00" routeLength="990.53" waitingTime="0.00" waitingCount="0" stopTime="0.00" timeLoss="11.14" rerouteNo="0" devices="tripinfo_NS_33" vType="car" speedFactor="1.03" vaporized=""/>
    <tripinfo id="EW_38" depart="38.00" departLane="4i_0" departPos="4.10" departSpeed="0.00" departDelay="0.00" arrival="117.00" arrivalLane="1o_0" arrivalPos="492.80" arrivalSpeed="10.15" duration="79.00" routeLength="990.53" waitingTime="0.00" waitingCount="0" stopTime="0.00" timeLoss="7.65" rerouteNo="0" devices="tripinfo_EW_38" vType="car" speedFactor="0.99" vaporized=""/>
    <tripinfo id="NS_34" depart="36.00" departLane="2i_0" departPos="4.10" departSpeed="0.00" departDelay="2.00" arrival="119.00" arrivalLane="1o_0" arrivalPos="492.80" arrivalSpeed="11.59" duration="83.00" routeLength="995.90" waitingTime="3.00" waitingCount="1" stopTime="0.00" timeLoss="14.67" rerouteNo="0" devices="tripinfo_NS_34" vType="car" speedFactor="1.05" vaporized=""/>
    <tripinfo id="SN_29" depart="29.00" departLane="3i_0" departPos="4.10" departSpeed="0.00" departDelay="0.00" arrival="121.00" arrivalLane="4o_0" arrivalPos="492.80" arrivalSpeed="9.11" duration="92.00" routeLength="995.90" waitingTime="0.00" waitingCount="0" stopTime="0.00" timeLoss="9.33" rerouteNo="0" devices="tripinfo_SN_29" vType="car" speedFactor="0.86" vaporized=""/>
    <tripinfo id="WE_35" depart="35.00" departLane="1i_0" departPos="4.10" departSpeed="0.00" departDelay="0.00" arrival="123.00" arrivalLane="4o_0" arrivalPos="492.80" arrivalSpeed="11.59" duration="88.00" routeLength="995.70" waitingTime="0.00" waitingCount="0" stopTime="0.00" timeLoss="24.44" rerouteNo="0" devices="tripinfo_WE_35" vType="car" speedFactor="1.12" vaporized=""/>
    <tripinfo id="WE_48" depart="48.00" departLane="1i_0" departPos="4.10" departSpeed="0.00" departDelay="0.00" arrival="132.00" arrivalLane="3o_0" arrivalPos="492.80" arrivalSpeed="9.29" duration="84.00" routeLength="990.53" waitingTime="0.00" waitingCount="0" stopTime="0.00" timeLoss="7.73" rerouteNo="0" devices="tripinfo_WE_48" vType="car" speedFactor="0.93" vaporized=""/>
    <tripinfo id="WE_54" depart="54.00" departLane="1i_0" departPos="4.10" departSpeed="0.00" departDelay="0.00" arrival="138.00" arrivalLane="2o_0" arrivalPos="492.80" arrivalSpeed="9.61" duration="84.00" routeLength="995.90" waitingTime="0.00" waitingCount="0" stopTime="0.00" timeLoss="8.51" rerouteNo="0" devices="tripinfo_WE_54" vType="car" speedFactor="0.94" vaporized=""/>
    <tripinfo id="SN_60" depart="60.00" departLane="3i_0" departPos="4.10" departSpeed="0.00" departDelay="0.00" arrival="139.00" arrivalLane="2o_0" arrivalPos="492.80" arrivalSpeed="10.51" duration="79.00" routeLength="990.53" waitingTime="0.00" waitingCount="0" stopTime="0.00" timeLoss="9.30" rerouteNo="0" devices="tripinfo_SN_60" vType="car" speedFactor="1.01" vaporized=""/>
    <tripinfo id="NS_53" depart="53.00" departLane="2i_0" departPos="4.10" departSpeed="0.00" departDelay="0.00" arrival="142.00" arrivalLane="4o_0" arrivalPos="492.80" arrivalSpeed="8.47" duration="89.00" routeLength="990.53" waitingTime="0.00" waitingCount="0" stopTime="0.00" timeLoss="8.47" rerouteNo="0" devices="tripinfo_NS_53" vType="car" speedFactor="0.88" vaporized=""/>
    <tripinfo id="WE_59" depart="59.00" departLane="1i_0" departPos="10.10" departSpeed="0.00" departDelay="0.00" arrival="142.00" arrivalLane="2o_0" arrivalPos="492.80" arrivalSpeed="11.75" duration="83.00" routeLength="989.90" waitingTime="0.00" waitingCount="0" stopTime="0.00" timeLoss="15.93" rerouteNo="0" devices="tripinfo_WE_59" vType="truck" speedFactor="1.08" vaporized=""/>
    <tripinfo id="EW_56" depart="56.00" departLane="4i_0" departPos="4.10" departSpeed="0.00" departDelay="0.00" arrival="143.00" arrivalLane="1o_0" arrivalPos="492.80" arrivalSpeed="9.78" duration="87.00" routeLength="990.53" waitingTime="0.00" waitingCount="0" stopTime="0.00" timeLoss="11.26" rerouteNo="0" devices="tripinfo_EW_56" vType="car" speedFactor="0.94" vaporized=""/>
    <tripinfo id="NS_62" depart="62.00" departLane="2i_0" departPos="4.10" departSpeed="0.00" departDelay="0.00" arrival="144.00" arrivalLane="4o_0" arrivalPos="492.80" arrivalSpeed="10.18" duration="82.00" routeLength="990.53" waitingTime="0.00" waitingCount="0" stopTime="0.00" timeLoss="8.87" rerouteNo="0" devices="tripinfo_NS_62" vType="car" speedFactor="0.97" vaporized=""/>
    <tripinfo id="NS_73" depart="73.00" departLane="2i_0" departPos="4.10" departSpeed="0.00" departDelay="0.00" arrival="147.00" arrivalLane="3o_0" arrivalPos="492.80" arrivalSpeed="11.79" duration="74.00" routeLength="995.70" waitingTime="0.00" waitingCount="0" stopTime="0.00" timeLoss="11.34" rerouteNo="0" devices="tripinfo_NS_73" vType="car" speedFactor="1.13" vaporized=""/>
    <tripinfo id="EW_59" depart="59.00" departLane="4i_0" departPos="4.10" departSpeed="0.00" departDelay="0.00" arrival="148.00" arrivalLane="1o_0" arrivalPos="492.80" arrivalSpeed="11.23" duration="89.00" routeLength="990.53" waitingTime="5.00" waitingCount="1" stopTime="0.00" timeLoss="19.94" rerouteNo="0" devices="tripinfo_EW_59" vType="car" speedFactor="1.02" vaporized=""/>
    <tripinfo id="SN_82" depart="82.00" departLane="3i_0" departPos="4.10" departSpeed="0.00" departDelay="0.00" arrival="151.00" arrivalLane="2o_0" arrivalPos="492.80" arrivalSpeed="12.37" duration="69.00" routeLength="990.53" waitingTime="0.00" waitingCount="0" stopTime="0.00" timeLoss="7.58" rerouteNo="0" devices="tripinfo_SN_82" vType="car" speedFactor="1.15" vaporized=""/>
    <tripinfo id="WE_66" depart="66.00" departLane="1i_0" departPos="4.10" departSpeed="0.00" departDelay="0.00" arrival="161.00" arrivalLane="4o_0" arrivalPos="492.80" arrivalSpeed="8.91" duration="95.00" routeLength="995.70" waitingTime="1.00" waitingCount="1" stopTime="0.00" timeLoss="15.02" rerouteNo="0" devices="tripinfo_WE_66" vType="car" speedFactor="0.89" vaporized=""/>
    <tripinfo id="NS_85" depart="85.00" departLane="2i_0" departPos="4.10" departSpeed="0.00" departDelay="0.00" arrival="167.00" arrivalLane="4o_0" arrivalPos="492.80" arrivalSpeed="10.38" duration="82.00" routeLength="990.53" waitingTime="1.00" waitingCount="1" stopTime="0.00" timeLoss="10.92" rerouteNo="0" devices="tripinfo_NS_85" vType="car" speedFactor="0.99" vaporized=""/>
    <tripinfo id="NS_96" depart="96.00" departLane="2i_0" departPos="4.10" departSpeed="0.00" departDelay="0.00" arrival="167.00" arrivalLane="1o_0" arrivalPos="492.80" arrivalSpeed="12.22" duration="71.00" routeLength="995.90" waitingTime="0.00" waitingCount="0" stopTime="0.00" timeLoss="10.18" rerouteNo="0" devices="tripinfo_NS_96" vType="car" speedFactor="1.18" vaporized=""/>
    <tripinfo id="EW_66" depart="66.00" departLane="4i_0" departPos="4.10" departSpeed="0.00" departDelay="0.00" arrival="168.00" arrivalLane="3o_0" arrivalPos="492.80" arrivalSpeed="8.31" duration="102.00" routeLength="995.90" waitingTime="2.00" waitingCount="1" stopTime="0.00" timeLoss="16.45" rerouteNo="0" devices="tripinfo_EW_66" vType="car" speedFactor="0.83" vaporized=""/>
    <tripinfo id="WE_70" depart="70.00" departLane="1i_0" departPos="4.10" departSpeed="0.00" departDelay="0.00" arrival="170.00" arrivalLane="2o_0" arrivalPos="492.80" arrivalSpeed="9.68" duration="100.00" routeLength="995.90" waitingTime="2.00" waitingCount="1" stopTime="0.00" timeLoss="18.49" rerouteNo="0" devices="tripinfo_WE_70" vType="car" speedFactor="0.87" vaporized=""/>
    <tripinfo id="EW_75" depart="75.00" departLane="4i_0" departPos="4.10" departSpeed="0.00" departDelay="0.00" arrival="170.00" arrivalLane="3o_0" arrivalPos="492.80" arrivalSpeed="10.32" duration="95.00" routeLength="995.90" waitingTime="0.00" waitingCount="0" stopTime="0.00" timeLoss="18.66" rerouteNo="0" devices="tripinfo_EW_75" vType="car" speedFactor="0.93" vaporized=""/>
    <tripinfo id="EW_82" depart="82.00" departLane="4i_0" departPos="4.10" departSpeed="0.00" departDelay="0.00" arrival="172.00" arrivalLane="2o_0" arrivalPos="492.80" arrivalSpeed="11.15" duration="90.00" routeLength="995.70" waitingTime="2.00" waitingCount="1" stopTime="0.00" timeLoss="29.44" rerouteNo="0" devices="tripinfo_EW_82" vType="car" speedFactor="1.18" vaporized=""/>
    <tripinfo id="NS_93" depart="93.00" departLane="2i_0" departPos="4.10" departSpeed="0.00" departDelay="0.00" arrival="172.00" arrivalLane="4o_0" arrivalPos="492.80" arrivalSpeed="10.95" duration="79.00" routeLength="990.53" waitingTime="0.00" waitingCount="0" stopTime="0.00" timeLoss="9.09" rerouteNo="0" devices="tripinfo_NS_93" vType="car" speedFactor="1.02" vaporized=""/>
    <tripinfo id="WE_71" depart="72.00" departLane="1i_0" departPos="4.10" departSpeed="0.00" departDelay="1.00" arrival="175.00" arrivalLane="2o_0" arrivalPos="492.80" arrivalSpeed="9.05" duration="103.00" routeLength="995.90" waitingTime="2.00" waitingCount="2" stopTime="0.00" timeLoss="25.95" rerouteNo="0" devices="tripinfo_WE_71" vType="car" speedFactor="0.92" vaporized=""/>
    <tripinfo id="EW_85" depart="85.00" departLane="4i_0" departPos="4.10" departSpeed="0.00" departDelay="0.00" arrival="177.00" arrivalLane="2o_0" arrivalPos="492.80" arrivalSpeed="13.00" duration="92.00" routeLength="995.70" waitingTime="4.00" waitingCount="2" stopTime="0.00" timeLoss="31.33" rerouteNo="0" devices="tripinfo_EW_85" vType="car" speedFactor="1.17" vaporized=""/>
    <tripinfo id="NS_113" depart="113.00" departLane="2i_0" departPos="4.10" departSpeed="0.00" departDelay="0.00" arrival="186.00" arrivalLane="1o_0" arrivalPos="492.80" arrivalSpeed="11.43" duration="73.00" routeLength="995.90" waitingTime="0.00" waitingCount="0" stopTime="0.00" timeLoss="8.01" rerouteNo="0" devices="tripinfo_NS_113" vType="car" speedFactor="1.09" vaporized=""/>
    <tripinfo id="SN_83" depart="84.00" departLane="3i_0" departPos="4.10" departSpeed="0.00" departDelay="1.00" arrival="195.00" arrivalLane="2o_0" arrivalPos="492.80" arrivalSpeed="9.96" duration="111.00" routeLength="990.53" waitingTime="26.00" waitingCount="3" stopTime="0.00" timeLoss="40.96" rerouteNo="0" devices="tripinfo_SN_83" vType="car" speedFactor="1.01" vaporized=""/>
    <tripinfo id="EW_97" depart="97.00" departLane="4i_0" departPos="4.10" departSpeed="0.00" departDelay="0.00" arrival="195.00" arrivalLane="3o_0" arrivalPos="492.80" arrivalSpeed="10.95" duration="98.00" routeLength="995.90" waitingTime="17.00" waitingCount="2" stopTime="0.00" timeLoss="33.33" rerouteNo="0" devices="tripinfo_EW_97" vType="car" speedFactor="1.10" vaporized=""/>
    <tripinfo id="WE_72" depart="77.00" departLane="1i_0" departPos="4.10" departSpeed="0.00" departDelay="5.00" arrival="199.00" arrivalLane="4o_0" arrivalPos="492.80" arrivalSpeed="9.36" duration="122.00" routeLength="995.70" waitingTime="20.00" waitingCount="2" stopTime="0.00" timeLoss="46.79" rerouteNo="0" devices="tripinfo_WE_72" vType="car" speedFactor="0.95" vaporized=""/>
    <tripinfo id="WE_112" depart="112.00" departLane="1i_0" departPos="4.10" departSpeed="0.00" departDelay="0.00" arrival="201.00" arrivalLane="2o_0" arrivalPos="492.80" arrivalSpeed="10.84" duration="89.00" routeLength="995.90" waitingTime="2.00" waitingCount="2" stopTime="0.00" timeLoss="20.15" rerouteNo="0" devices="tripinfo_WE_112" vType="car" speedFactor="1.04" vaporized=""/>
    <tripinfo id="EW_99" depart="103.00" departLane="4i_0" departPos="4.10" departSpeed="0.00" departDelay="4.00" arrival="203.00" arrivalLane="2o_0" arrivalPos="492.80" arrivalSpeed="10.34" duration="100.00" routeLength="995.70" waitingTime="10.00" waitingCount="1" stopTime="0.00" timeLoss="31.07" rerouteNo="0" devices="tripinfo_EW_99" vType="car" speedFactor="1.03" vaporized=""/>
    <tripinfo id="EW_98" depart="100.00" departLane="4i_0" departPos="4.10" departSpeed="0.00" departDelay="2.00" arrival="206.00" arrivalLane="1o_0" arrivalPos="492.80" arrivalSpeed="10.00" duration="106.00" routeLength="990.53" waitingTime="12.00" waitingCount="2" stopTime="0.00" timeLoss="27.51" rerouteNo="0" devices="tripinfo_EW_98" vType="car" speedFactor="0.90" vaporized=""/>
    <tripinfo id="SN_95" depart="95.00" departLane="3i_0" departPos="4.10" departSpeed="0.00" departDelay="0.00" arrival="208.00" arrivalLane="1o_0" arrivalPos="492.80" arrivalSpeed="10.45" duration="113.00" routeLength="995.70" waitingTime="20.00" waitingCount="2" stopTime="0.00" timeLoss="40.03" rerouteNo="0" devices="tripinfo_SN_95" vType="car" speedFactor="0.97" vaporized=""/>
    <tripinfo id="WE_113" depart="119.00" departLane="1i_0" departPos="4.10" departSpeed="0.00" departDelay="6.00" arrival="208.00" arrivalLane="2o_0" arrivalPos="492.80" arrivalSpeed="11.37" duration="89.00" routeLength="995.90" waitingTime="2.00" waitingCount="2" stopTime="0.00" timeLoss="21.25" rerouteNo="0" devices="tripinfo_WE_113" vType="car" speedFactor="1.04" vaporized=""/>
    <tripinfo id="EW_103" depart="106.00" departLane="4i_0" departPos="4.10" departSpeed="0.00" departDelay="3.00" arrival="209.00" arrivalLane="3o_0" arrivalPos="492.80" arrivalSpeed="11.55" duration="103.00" routeLength="995.90" waitingTime="13.00" waitingCount="3" stopTime="0.00" timeLoss="38.04" rerouteNo="0" devices="tripinfo_EW_103" vType="car" speedFactor="1.09" vaporized=""/>
    <tripinfo id="NS_117" depart="117.00" departLane="2i_0" departPos="4.10" departSpeed="0.00" departDelay="0.00" arrival="209.00" arrivalLane="4o_0" arrivalPos="492.80" arrivalSpeed="9.10" duration="92.00" routeLength="990.53" waitingTime="1.00" waitingCount="1" stopTime="0.00" timeLoss="13.63" rerouteNo="0" devices="tripinfo_NS_117" vType="car" speedFactor="0.90" vaporized=""/>
    <tripinfo id="WE_129" depart="129.00" departLane="1i_0" departPos="4.10" departSpeed="0.00" departDelay="0.00" arrival="214.00" arrivalLane="3o_0" arrivalPos="492.80" arrivalSpeed="11.77" duration="85.00" routeLength="990.53" waitingTime="1.00" waitingCount="1" stopTime="0.00" timeLoss="20.56" rerouteNo="0" devices="tripinfo_WE_129" vType="car" speedFactor="1.10" vaporized=""/>
    <tripinfo id="WE_116" depart="122.00" departLane="1i_0" departPos="4.10" departSpeed="0.00" departDelay="6.00" arrival="217.00" arrivalLane="2o_0" arrivalPos="492.80" arrivalSpeed="10.90" duration="95.00" routeLength="995.90" waitingTime="2.00" waitingCount="1" stopTime="0.00" timeLoss="23.95" rerouteNo="0" devices="tripinfo_WE_116" vType="car" speedFactor="1.00" vaporized=""/>
    <tripinfo id="WE_131" depart="131.00" departLane="1i_0" departPos="4.10" departSpeed="0.00" departDelay="0.00" arrival="221.00" arrivalLane="2o_0" arrivalPos="492.80" arrivalSpeed="10.92" duration="90.00" routeLength="995.90" waitingTime="1.00" waitingCount="1" stopTime="0.00" timeLoss="19.22" rerouteNo="0" devices="tripinfo_WE_131" vType="car" speedFactor="1.00" vaporized=""/>
    <tripinfo id="SN_101" depart="101.00" departLane="3i_0" departPos="4.10" departSpeed="0.00" departDelay="0.00" arrival="222.00" arrivalLane="1o_0" arrivalPos="492.80" arrivalSpeed="9.64" duration="121.00" routeLength="995.70" waitingTime="22.00" waitingCount="3" stopTime="0.00" timeLoss="46.88" rerouteNo="0" devices="tripinfo_SN_101" vType="car" speedFactor="0.96" vaporized=""/>
    <tripinfo id="EW_128" depart="128.00" departLane="4i_0" departPos="4.10" departSpeed="0.00" departDelay="0.00" arrival="224.00" arrivalLane="1o_0" arrivalPos="492.80" arrivalSpeed="10.59" duration="96.00" routeLength="990.53" waitingTime="5.00" waitingCount="1" stopTime="0.00" timeLoss="26.35" rerouteNo="0" devices="tripinfo_EW_128" vType="car" speedFactor="1.02" vaporized=""/>
    <tripinfo id="EW_125" depart="125.00" departLane="4i_0" departPos="4.10" departSpeed="0.00" departDelay="0.00" arrival="233.00" arrivalLane="3o_0" arrivalPos="492.80" arrivalSpeed="8.29" duration="108.00" routeLength="995.90" waitingTime="6.00" waitingCount="1" stopTime="0.00" timeLoss="25.04" rerouteNo="0" devices="tripinfo_EW_125" vType="car" speedFactor="0.85" vaporized=""/>
    <tripinfo id="SN_117" depart="117.00" departLane="3i_0" departPos="4.10" departSpeed="0.00" departDelay="0.00" arrival="235.00" arrivalLane="1o_0" arrivalPos="492.80" arrivalSpeed="8.63" duration="118.00" routeLength="995.70" waitingTime="13.00" waitingCount="3" stopTime="0.00" timeLoss="37.25" rerouteNo="0" devices="tripinfo_SN_117" vType="car" speedFactor="0.88" vaporized=""/>
    <tripinfo id="EW_150" depart="150.00" departLane="4i_0" departPos="4.10" departSpeed="0.00" departDelay="0.00" arrival="237.00" arrivalLane="1o_0" arrivalPos="492.80" arrivalSpeed="12.43" duration="87.00" routeLength="990.53" waitingTime="0.00" waitingCount="0" stopTime="0.00" timeLoss="24.72" rerouteNo="0" devices="tripinfo_EW_150" vType="car" speedFactor="1.14" vaporized=""/>
    <tripinfo id="SN_123" depart="123.00" departLane="3i_0" departPos="4.10" departSpeed="0.00" departDelay="0.00" arrival="238.00" arrivalLane="4o_0" arrivalPos="492.80" arrivalSpeed="9.16" duration="115.00" routeLength="995.90" waitingTime="5.00" waitingCount="1" stopTime="0.00" timeLoss="31.59" rerouteNo="0" devices="tripinfo_SN_123" vType="car" speedFactor="0.85" vaporized=""/>
    <tripinfo id="SN_126" depart="127.00" departLane="3i_0" departPos="10.10" departSpeed="0.00" departDelay="1.00" arrival="240.00" arrivalLane="4o_0" arrivalPos="492.80" arrivalSpeed="10.97" duration="113.00" routeLength="989.90" waitingTime="4.00" waitingCount="1" stopTime="0.00" timeLoss="46.95" rerouteNo="0" devices="tripinfo_SN_126" vType="truck" speedFactor="1.08" vaporized=""/>
    <tripinfo id="WE_156" depart="156.00" departLane="1i_0" departPos="4.10" departSpeed="0.00" departDelay="0.00" arrival="243.00" arrivalLane="4o_0" arrivalPos="492.80" arrivalSpeed="11.57" duration="87.00" routeLength="995.70" waitingTime="0.00" waitingCount="0" stopTime="0.00" timeLoss="20.95" rerouteNo="0" devices="tripinfo_WE_156" vType="car" speedFactor="1.08" vaporized=""/>
    <tripinfo id="NS_152" depart="152.00" departLane="2i_0" departPos="4.10" departSpeed="0.00" departDelay="0.00" arrival="245.00" arrivalLane="4o_0" arrivalPos="492.80" arrivalSpeed="10.00" duration="93.00" routeLength="990.53" waitingTime="5.00" waitingCount="4" stopTime="0.00" timeLoss="20.07" rerouteNo="0" devices="tripinfo_NS_152" vType="car" speedFactor="0.97" vaporized=""/>
    <tripinfo id="NS_160" depart="160.00" departLane="2i_0" departPos="4.10" departSpeed="0.00" departDelay="0.00" arrival="249.00" arrivalLane="3o_0" arrivalPos="492.80" arrivalSpeed="10.42" duration="89.00" routeLength="995.70" waitingTime="0.00" waitingCount="0" stopTime="0.00" timeLoss="16.75" rerouteNo="0" devices="tripinfo_NS_160" vType="car" speedFactor="0.99" vaporized=""/>
    <tripinfo id="NS_164" depart="164.00" departLane="2i_0" departPos="10.10" departSpeed="0.00" departDelay="0.00" arrival="251.00" arrivalLane="4o_0" arrivalPos="492.80" arrivalSpeed="10.53" duration="87.00" routeLength="984.53" waitingTime="0.00" waitingCount="0" stopTime="0.00" timeLoss="13.09" rerouteNo="0" devices="tripinfo_NS_164" vType="truck" speedFactor="0.95" vaporized=""/>
    <tripinfo id="WE_162" depart="162.00" departLane="1i_0" departPos="4.10" departSpeed="0.00" departDelay="0.00" arrival="252.00" arrivalLane="2o_0" arrivalPos="492.80" arrivalSpeed="8.74" duration="90.00" routeLength="995.90" waitingTime="0.00" waitingCount="0" stopTime="0.00" timeLoss="9.52" rerouteNo="0" devices="tripinfo_WE_162" vType="car" speedFactor="0.88" vaporized=""/>
    <tripinfo id="SN_131" depart="132.00" departLane="3i_0" departPos="10.10" departSpeed="0.00" departDelay="1.00" arrival="256.00" arrivalLane="4o_0" arrivalPos="492.80" arrivalSpeed="10.89" duration="124.00" routeLength="989.90" waitingTime="15.00" waitingCount="2" stopTime="0.00" timeLoss="53.28" rerouteNo="0" devices="tripinfo_SN_131" vType="truck" speedFactor="1.00" vaporized=""/>
    <tripinfo id="NS_167" depart="172.00" departLane="2i_0" departPos="4.10" departSpeed="0.00" departDelay="5.00" arrival="261.00" arrivalLane="4o_0" arrivalPos="492.80" arrivalSpeed="10.40" duration="89.00" routeLength="990.53" waitingTime="2.00" waitingCount="1" stopTime="0.00" timeLoss="21.25" rerouteNo="0" devices="tripinfo_NS_167" vType="car" speedFactor="1.04" vaporized=""/>
    <tripinfo id="NS_165" depart="168.00" departLane="2i_0" departPos="4.10" departSpeed="0.00" departDelay="3.00" arrival="266.00" arrivalLane="1o_0" arrivalPos="492.80" arrivalSpeed="9.23" duration="98.00" routeLength="995.90" waitingTime="4.00" waitingCount="1" stopTime="0.00" timeLoss="20.35" rerouteNo="0" devices="tripinfo_NS_165" vType="car" speedFactor="0.91" vaporized=""/>
    <tripinfo id="EW_152" depart="154.00" departLane="4i_0" departPos="10.10" departSpeed="0.00" departDelay="2.00" arrival="267.00" arrivalLane="2o_0" arrivalPos="492.80" arrivalSpeed="10.97" duration="113.00" routeLength="989.70" waitingTime="18.00" waitingCount="3" stopTime="0.00" timeLoss="43.20" rerouteNo="0" devices="tripinfo_EW_152" vType="truck" speedFactor="1.01" vaporized=""/>
    <tripinfo id="WE_181" depart="181.00" departLane="1i_0" departPos="10.10" departSpeed="0.00" departDelay="0.00" arrival="274.00" arrivalLane="4o_0" arrivalPos="492.80" arrivalSpeed="11.15" duration="93.00" routeLength="989.70" waitingTime="1.00" waitingCount="1" stopTime="0.00" timeLoss="22.67" rerouteNo="0" devices="tripinfo_WE_181" vType="truck" speedFactor="1.01" vaporized=""/>
    <tripinfo id="WE_186" depart="186.00" departLane="1i_0" departPos="4.10" departSpeed="0.00" departDelay="0.00" arrival="277.00" arrivalLane="3o_0" arrivalPos="492.80" arrivalSpeed="9.64" duration="91.00" routeLength="990.53" waitingTime="0.00" waitingCount="0" stopTime="0.00" timeLoss="18.36" rerouteNo="0" devices="tripinfo_WE_186" vType="car" speedFactor="0.97" vaporized=""/>
    <tripinfo id="EW_177" depart="177.00" departLane="4i_0" departPos="4.10" departSpeed="0.00" departDelay="0.00" arrival="279.00" arrivalLane="1o_0" arrivalPos="492.80" arrivalSpeed="10.59" duration="102.00" routeLength="990.53" waitingTime="5.00" waitingCount="2" stopTime="0.00" timeLoss="32.64" rerouteNo="0" devices="tripinfo_EW_177" vType="car" speedFactor="1.02" vaporized=""/>
    <tripinfo id="EW_161" depart="161.00" departLane="4i_0" departPos="4.10" departSpeed="0.00" departDelay="0.00" arrival="282.00" arrivalLane="2o_0" arrivalPos="492.80" arrivalSpeed="10.29" duration="121.00" routeLength="995.70" waitingTime="16.00" waitingCount="5" stopTime="0.00" timeLoss="44.93" rerouteNo="0" devices="tripinfo_EW_161" vType="car" speedFactor="0.94" vaporized=""/>
    <tripinfo id="SN_156" depart="156.00" departLane="3i_0" departPos="4.10" departSpeed="0.00" departDelay="0.00" arrival="283.00" arrivalLane="2o_0" arrivalPos="492.80" arrivalSpeed="11.15" duration="127.00" routeLength="990.53" waitingTime="25.00" waitingCount="4" stopTime="0.00" timeLoss="64.09" rerouteNo="0" devices="tripinfo_SN_156" vType="car" speedFactor="1.12" vaporized=""/>
    <tripinfo id="SN_145" depart="147.00" departLane="3i_0" departPos="10.10" departSpeed="0.00" departDelay="2.00" arrival="285.00" arrivalLane="4o_0" arrivalPos="492.80" arrivalSpeed="10.40" duration="138.00" routeLength="989.90" waitingTime="30.00" waitingCount="4" stopTime="0.00" timeLoss="63.45" rerouteNo="0" devices="tripinfo_SN_145" vType="truck" speedFactor="0.95" vaporized=""/>
    <tripinfo id="NS_195" depart="195.00" departLane="2i_0" departPos="10.10" departSpeed="0.00" departDelay="0.00" arrival="290.00" arrivalLane="1o_0" arrivalPos="492.80" arrivalSpeed="10.52" duration="95.00" routeLength="989.90" waitingTime="1.00" waitingCount="1" stopTime="0.00" timeLoss="22.54" rerouteNo="0" devices="tripinfo_NS_195" vType="truck" speedFactor="0.98" vaporized=""/>
    <tripinfo id="SN_158" depart="158.00" departLane="3i_0" departPos="4.10" departSpeed="0.00" departDelay="0.00" arrival="292.00" arrivalLane="1o_0" arrivalPos="492.80" arrivalSpeed="10.55" duration="134.00" routeLength="995.70" waitingTime="22.00" waitingCount="4" stopTime="0.00" timeLoss="64.42" rerouteNo="0" devices="tripinfo_SN_158" vType="car" speedFactor="1.02" vaporized=""/>
    <tripinfo id="WE_210" depart="210.00" departLane="1i_0" departPos="4.10" departSpeed="0.00" departDelay="0.00" arrival="294.00" arrivalLane="2o_0" arrivalPos="492.80" arrivalSpeed="10.63" duration="84.00" routeLength="995.90" waitingTime="1.00" waitingCount="1" stopTime="0.00" timeLoss="11.84" rerouteNo="0" devices="tripinfo_WE_210" vType="car" speedFactor="0.98" vaporized=""/>
    <tripinfo id="EW_212" depart="212.00" departLane="4i_0" departPos="4.10" departSpeed="0.00" departDelay="0.00" arrival="296.00" arrivalLane="2o_0" arrivalPos="492.80" arrivalSpeed="10.57" duration="84.00" routeLength="995.70" waitingTime="2.00" waitingCount="1" stopTime="0.00" timeLoss="15.04" rerouteNo="0" devices="tripinfo_EW_212" vType="car" speedFactor="1.03" vaporized=""/>
    <tripinfo id="WE_218" depart="218.00" departLane="1i_0" departPos="4.10" departSpeed="0.00" departDelay="0.00" arrival="297.00" arrivalLane="3o_0" arrivalPos="492.80" arrivalSpeed="10.63" duration="79.00" routeLength="990.53" waitingTime="0.00" waitingCount="0" stopTime="0.00" timeLoss="8.60" rerouteNo="0" devices="tripinfo_WE_218" vType="car" speedFactor="1.00" vaporized=""/>