<?xml version="1.0" encoding="UTF-8"?>

<!-- generated on 2024-05-05 16:42:49 by Eclipse SUMO sumo Version 1.19.0
<configuration xmlns:xsi="http://www.w3.org/2001/XMLSchema-instance" xsi:noNamespaceSchemaLocation="http://sumo.dlr.de/xsd/sumoConfiguration.xsd">

    <input>
        <net-file value="twoone.net.xml"/>
        <route-files value="route_gen.rou.xml"/>
    </input>

    <output>
        <tripinfo-output value="tripinfo_epi192.xml"/>
    </output>

    <report>
        <no-warnings value="true"/>
    </report>

    <traci_server>
        <remote-port value="58857"/>
    </traci_server>

</configuration>
-->

<tripinfos xmlns:xsi="http://www.w3.org/2001/XMLSchema-instance" xsi:noNamespaceSchemaLocation="http://sumo.dlr.de/xsd/tripinfo_file.xsd">
    <tripinfo id="NS_2" depart="2.00" departLane="2i_0" departPos="4.10" departSpeed="0.00" departDelay="0.00" arrival="77.00" arrivalLane="1o_0" arrivalPos="492.80" arrivalSpeed="11.35" duration="75.00" routeLength="995.90" waitingTime="0.00" waitingCount="0" stopTime="0.00" timeLoss="8.40" rerouteNo="0" devices="tripinfo_NS_2" vType="car" speedFactor="1.06" vaporized=""/>
    <tripinfo id="SN_5" depart="5.00" departLane="3i_0" departPos="4.10" departSpeed="0.00" departDelay="0.00" arrival="85.00" arrivalLane="4o_0" arrivalPos="492.80" arrivalSpeed="10.04" duration="80.00" routeLength="995.90" waitingTime="0.00" waitingCount="0" stopTime="0.00" timeLoss="9.81" rerouteNo="0" devices="tripinfo_SN_5" vType="car" speedFactor="1.01" vaporized=""/>
    <tripinfo id="WE_4" depart="4.00" departLane="1i_0" departPos="4.10" departSpeed="0.00" departDelay="0.00" arrival="96.00" arrivalLane="4o_0" arrivalPos="492.80" arrivalSpeed="9.75" duration="92.00" routeLength="995.70" waitingTime="5.00" waitingCount="1" stopTime="0.00" timeLoss="16.17" rerouteNo="0" devices="tripinfo_WE_4" vType="car" speedFactor="0.94" vaporized=""/>
    <tripinfo id="EW_7" depart="7.00" departLane="4i_0" departPos="10.10" departSpeed="0.00" departDelay="0.00" arrival="99.00" arrivalLane="2o_0" arrivalPos="492.80" arrivalSpeed="11.40" duration="92.00" routeLength="989.70" waitingTime="2.00" waitingCount="1" stopTime="0.00" timeLoss="23.86" rerouteNo="0" devices="tripinfo_EW_7" vType="truck" speedFactor="1.04" vaporized=""/>
    <tripinfo id="EW_9" depart="11.00" departLane="4i_0" departPos="4.10" departSpeed="0.00" departDelay="2.00" arrival="105.00" arrivalLane="1o_0" arrivalPos="492.80" arrivalSpeed="10.29" duration="94.00" routeLength="990.53" waitingTime="2.00" waitingCount="2" stopTime="0.00" timeLoss="25.09" rerouteNo="0" devices="tripinfo_EW_9" vType="car" speedFactor="1.03" vaporized=""/>
    <tripinfo id="WE_15" depart="15.00" departLane="1i_0" departPos="4.10" departSpeed="0.00" departDelay="0.00" arrival="114.00" arrivalLane="4o_0" arrivalPos="492.80" arrivalSpeed="8.47" duration="99.00" routeLength="995.70" waitingTime="0.00" waitingCount="0" stopTime="0.00" timeLoss="13.70" rerouteNo="0" devices="tripinfo_WE_15" vType="car" speedFactor="0.83" vaporized=""/>
    <tripinfo id="WE_18" depart="18.00" departLane="1i_0" departPos="4.10" departSpeed="0.00" departDelay="0.00" arrival="114.00" arrivalLane="3o_0" arrivalPos="492.80" arrivalSpeed="9.15" duration="96.00" routeLength="990.53" waitingTime="0.00" waitingCount="0" stopTime="0.00" timeLoss="16.02" rerouteNo="0" devices="tripinfo_WE_18" vType="car" speedFactor="0.89" vaporized=""/>
    <tripinfo id="WE_26" depart="26.00" departLane="1i_0" departPos="4.10" departSpeed="0.00" departDelay="0.00" arrival="116.00" arrivalLane="4o_0" arrivalPos="492.80" arrivalSpeed="11.75" duration="90.00" routeLength="995.70" waitingTime="2.00" waitingCount="1" stopTime="0.00" timeLoss="24.42" rerouteNo="0" devices="tripinfo_WE_26" vType="car" speedFactor="1.09" vaporized=""/>
    <tripinfo id="NS_25" depart="25.00" departLane="2i_0" departPos="4.10" departSpeed="0.00" departDelay="0.00" arrival="118.00" arrivalLane="3o_0" arrivalPos="492.80" arrivalSpeed="8.36" duration="93.00" routeLength="995.70" waitingTime="0.00" waitingCount="0" stopTime="0.00" timeLoss="10.01" rerouteNo="0" devices="tripinfo_NS_25" vType="car" speedFactor="0.86" vaporized=""/>
    <tripinfo id="EW_16" depart="16.00" departLane="4i_0" departPos="4.10" departSpeed="0.00" departDelay="0.00" arrival="120.00" arrivalLane="3o_0" arrivalPos="492.80" arrivalSpeed="10.42" duration="104.00" routeLength="995.90" waitingTime="0.00" waitingCount="0" stopTime="0.00" timeLoss="35.83" rerouteNo="0" devices="tripinfo_EW_16" vType="car" speedFactor="1.05" vaporized=""/>
    <tripinfo id="EW_24" depart="24.00" departLane="4i_0" departPos="4.10" departSpeed="0.00" departDelay="0.00" arrival="122.00" arrivalLane="2o_0" arrivalPos="492.80" arrivalSpeed="10.31" duration="98.00" routeLength="995.70" waitingTime="2.00" waitingCount="2" stopTime="0.00" timeLoss="22.42" rerouteNo="0" devices="tripinfo_EW_24" vType="car" speedFactor="0.94" vaporized=""/>
    <tripinfo id="EW_29" depart="29.00" departLane="4i_0" departPos="4.10" departSpeed="0.00" departDelay="0.00" arrival="123.00" arrivalLane="1o_0" arrivalPos="492.80" arrivalSpeed="11.24" duration="94.00" routeLength="990.53" waitingTime="3.00" waitingCount="1" stopTime="0.00" timeLoss="25.40" rerouteNo="0" devices="tripinfo_EW_29" vType="car" speedFactor="1.03" vaporized=""/>
    <tripinfo id="WE_35" depart="35.00" departLane="1i_0" departPos="4.10" departSpeed="0.00" departDelay="0.00" arrival="124.00" arrivalLane="2o_0" arrivalPos="492.80" arrivalSpeed="11.56" duration="89.00" routeLength="995.90" waitingTime="0.00" waitingCount="0" stopTime="0.00" timeLoss="25.58" rerouteNo="0" devices="tripinfo_WE_35" vType="car" speedFactor="1.12" vaporized=""/>
    <tripinfo id="SN_46" depart="46.00" departLane="3i_0" departPos="4.10" departSpeed="0.00" departDelay="0.00" arrival="130.00" arrivalLane="2o_0" arrivalPos="492.80" arrivalSpeed="9.71" duration="84.00" routeLength="990.53" waitingTime="0.00" waitingCount="0" stopTime="0.00" timeLoss="7.81" rerouteNo="0" devices="tripinfo_SN_46" vType="car" speedFactor="0.93" vaporized=""/>
    <tripinfo id="EW_34" depart="34.00" departLane="4i_0" departPos="4.10" departSpeed="0.00" departDelay="0.00" arrival="132.00" arrivalLane="2o_0" arrivalPos="492.80" arrivalSpeed="11.46" duration="98.00" routeLength="995.70" waitingTime="3.00" waitingCount="1" stopTime="0.00" timeLoss="29.96" rerouteNo="0" devices="tripinfo_EW_34" vType="car" speedFactor="1.05" vaporized=""/>
    <tripinfo id="EW_35" depart="37.00" departLane="4i_0" departPos="4.10" departSpeed="0.00" departDelay="2.00" arrival="137.00" arrivalLane="1o_0" arrivalPos="492.80" arrivalSpeed="10.91" duration="100.00" routeLength="990.53" waitingTime="6.00" waitingCount="2" stopTime="0.00" timeLoss="28.35" rerouteNo="0" devices="tripinfo_EW_35" vType="car" speedFactor="0.99" vaporized=""/>
    <tripinfo id="EW_62" depart="62.00" departLane="4i_0" departPos="4.10" departSpeed="0.00" departDelay="0.00" arrival="152.00" arrivalLane="3o_0" arrivalPos="492.80" arrivalSpeed="8.64" duration="90.00" routeLength="995.90" waitingTime="0.00" waitingCount="0" stopTime="0.00" timeLoss="8.80" rerouteNo="0" devices="tripinfo_EW_62" vType="car" speedFactor="0.88" vaporized=""/>
    <tripinfo id="WE_71" depart="71.00" departLane="1i_0" departPos="4.10" departSpeed="0.00" departDelay="0.00" arrival="155.00" arrivalLane="2o_0" arrivalPos="492.80" arrivalSpeed="9.57" duration="84.00" routeLength="995.90" waitingTime="0.00" waitingCount="0" stopTime="0.00" timeLoss="8.38" rerouteNo="0" devices="tripinfo_WE_71" vType="car" speedFactor="0.94" vaporized=""/>
    <tripinfo id="WE_84" depart="84.00" departLane="1i_0" departPos="4.10" departSpeed="0.00" departDelay="0.00" arrival="168.00" arrivalLane="3o_0" arrivalPos="492.80" arrivalSpeed="9.12" duration="84.00" routeLength="990.53" waitingTime="0.00" waitingCount="0" stopTime="0.00" timeLoss="8.36" rerouteNo="0" devices="tripinfo_WE_84" vType="car" speedFactor="0.94" vaporized=""/>
    <tripinfo id="SN_91" depart="91.00" departLane="3i_0" departPos="4.10" departSpeed="0.00" departDelay="0.00" arrival="170.00" arrivalLane="4o_0" arrivalPos="492.80" arrivalSpeed="10.86" duration="79.00" routeLength="995.90" waitingTime="0.00" waitingCount="0" stopTime="0.00" timeLoss="8.82" rerouteNo="0" devices="tripinfo_SN_91" vType="car" speedFactor="1.02" vaporized=""/>
    <tripinfo id="NS_87" depart="87.00" departLane="2i_0" departPos="10.10" departSpeed="0.00" departDelay="0.00" arrival="172.00" arrivalLane="4o_0" arrivalPos="492.80" arrivalSpeed="11.88" duration="85.00" routeLength="984.53" waitingTime="2.00" waitingCount="1" stopTime="0.00" timeLoss="19.06" rerouteNo="0" devices="tripinfo_NS_87" vType="truck" speedFactor="1.08" vaporized=""/>
    <tripinfo id="EW_104" depart="104.00" departLane="4i_0" departPos="4.10" departSpeed="0.00" departDelay="0.00" arrival="184.00" arrivalLane="3o_0" arrivalPos="492.80" arrivalSpeed="10.29" duration="80.00" routeLength="995.90" waitingTime="0.00" waitingCount="0" stopTime="0.00" timeLoss="9.60" rerouteNo="0" devices="tripinfo_EW_104" vType="car" speedFactor="1.01" vaporized=""/>
    <tripinfo id="NS_104" depart="104.00" departLane="2i_0" departPos="4.10" departSpeed="0.00" departDelay="0.00" arrival="189.00" arrivalLane="4o_0" arrivalPos="492.80" arrivalSpeed="10.69" duration="85.00" routeLength="990.53" waitingTime="0.00" waitingCount="0" stopTime="0.00" timeLoss="12.62" rerouteNo="0" devices="tripinfo_NS_104" vType="car" speedFactor="0.97" vaporized=""/>
    <tripinfo id="NS_113" depart="113.00" departLane="2i_0" departPos="4.10" departSpeed="0.00" departDelay="0.00" arrival="195.00" arrivalLane="4o_0" arrivalPos="492.80" arrivalSpeed="10.03" duration="82.00" routeLength="990.53" waitingTime="0.00" waitingCount="0" stopTime="0.00" timeLoss="7.93" rerouteNo="0" devices="tripinfo_NS_113" vType="car" speedFactor="0.95" vaporized=""/>
    <tripinfo id="WE_105" depart="105.00" departLane="1i_0" departPos="4.10" departSpeed="0.00" departDelay="0.00" arrival="198.00" arrivalLane="2o_0" arrivalPos="492.80" arrivalSpeed="9.08" duration="93.00" routeLength="995.90" waitingTime="2.00" waitingCount="1" stopTime="0.00" timeLoss="12.92" rerouteNo="0" devices="tripinfo_WE_105" vType="car" speedFactor="0.89" vaporized=""/>
    <tripinfo id="NS_115" depart="115.00" departLane="2i_0" departPos="4.10" departSpeed="0.00" departDelay="0.00" arrival="202.00" arrivalLane="1o_0" arrivalPos="492.80" arrivalSpeed="9.86" duration="87.00" routeLength="995.90" waitingTime="0.00" waitingCount="0" stopTime="0.00" timeLoss="10.46" rerouteNo="0" devices="tripinfo_NS_115" vType="car" speedFactor="0.93" vaporized=""/>
    <tripinfo id="NS_122" depart="127.00" departLane="2i_0" departPos="4.10" departSpeed="0.00" departDelay="5.00" arrival="206.00" arrivalLane="1o_0" arrivalPos="492.80" arrivalSpeed="11.01" duration="79.00" routeLength="995.90" waitingTime="0.00" waitingCount="0" stopTime="0.00" timeLoss="9.74" rerouteNo="0" devices="tripinfo_NS_122" vType="car" speedFactor="1.02" vaporized=""/>
    <tripinfo id="SN_105" depart="105.00" departLane="3i_0" departPos="4.10" departSpeed="0.00" departDelay="0.00" arrival="208.00" arrivalLane="4o_0" arrivalPos="492.80" arrivalSpeed="8.86" duration="103.00" routeLength="995.90" waitingTime="3.00" waitingCount="1" stopTime="0.00" timeLoss="16.56" rerouteNo="0" devices="tripinfo_SN_105" vType="car" speedFactor="0.83" vaporized=""/>
    <tripinfo id="NS_124" depart="132.00" departLane="2i_0" departPos="4.10" departSpeed="0.00" departDelay="8.00" arrival="208.00" arrivalLane="1o_0" arrivalPos="492.80" arrivalSpeed="11.93" duration="76.00" routeLength="995.90" waitingTime="0.00" waitingCount="0" stopTime="0.00" timeLoss="11.45" rerouteNo="0" devices="tripinfo_NS_124" vType="car" speedFactor="1.10" vaporized=""/>
    <tripinfo id="NS_116" depart="119.00" departLane="2i_0" departPos="10.10" departSpeed="0.00" departDelay="3.00" arrival="210.00" arrivalLane="4o_0" arrivalPos="492.80" arrivalSpeed="10.08" duration="91.00" routeLength="984.53" waitingTime="0.00" waitingCount="0" stopTime="0.00" timeLoss="25.02" rerouteNo="0" devices="tripinfo_NS_116" vType="truck" speedFactor="1.09" vaporized=""/>
    <tripinfo id="NS_117" depart="124.00" departLane="2i_0" departPos="4.10" departSpeed="0.00" departDelay="7.00" arrival="212.00" arrivalLane="4o_0" arrivalPos="492.80" arrivalSpeed="10.37" duration="88.00" routeLength="990.53" waitingTime="0.00" waitingCount="0" stopTime="0.00" timeLoss="18.20" rerouteNo="0" devices="tripinfo_NS_117" vType="car" speedFactor="1.01" vaporized=""/>
    <tripinfo id="WE_127" depart="127.00" departLane="1i_0" departPos="4.10" departSpeed="0.00" departDelay="0.00" arrival="213.00" arrivalLane="3o_0" arrivalPos="492.80" arrivalSpeed="9.48" duration="86.00" routeLength="990.53" waitingTime="0.00" waitingCount="0" stopTime="0.00" timeLoss="7.82" rerouteNo="0" devices="tripinfo_WE_127" vType="car" speedFactor="0.90" vaporized=""/>
    <tripinfo id="EW_111" depart="111.00" departLane="4i_0" departPos="10.10" departSpeed="0.00" departDelay="0.00" arrival="216.00" arrivalLane="1o_0" arrivalPos="492.80" arrivalSpeed="10.36" duration="105.00" routeLength="984.53" waitingTime="12.00" waitingCount="1" stopTime="0.00" timeLoss="32.15" rerouteNo="0" devices="tripinfo_EW_111" vType="truck" speedFactor="0.96" vaporized=""/>
    <tripinfo id="SN_108" depart="108.00" departLane="3i_0" departPos="10.10" departSpeed="0.00" departDelay="0.00" arrival="217.00" arrivalLane="2o_0" arrivalPos="492.80" arrivalSpeed="10.35" duration="109.00" routeLength="984.53" waitingTime="12.00" waitingCount="1" stopTime="0.00" timeLoss="33.88" rerouteNo="0" devices="tripinfo_SN_108" vType="truck" speedFactor="0.94" vaporized=""/>
    <tripinfo id="SN_114" depart="114.00" departLane="3i_0" departPos="4.10" departSpeed="0.00" departDelay="0.00" arrival="219.00" arrivalLane="2o_0" arrivalPos="492.80" arrivalSpeed="11.80" duration="105.00" routeLength="990.53" waitingTime="11.00" waitingCount="1" stopTime="0.00" timeLoss="42.56" rerouteNo="0" devices="tripinfo_SN_114" vType="car" speedFactor="1.13" vaporized=""/>
    <tripinfo id="EW_117" depart="117.00" departLane="4i_0" departPos="10.10" departSpeed="0.00" departDelay="0.00" arrival="222.00" arrivalLane="2o_0" arrivalPos="492.80" arrivalSpeed="11.60" duration="105.00" routeLength="989.70" waitingTime="8.00" waitingCount="1" stopTime="0.00" timeLoss="37.87" rerouteNo="0" devices="tripinfo_EW_117" vType="truck" speedFactor="1.08" vaporized=""/>
    <tripinfo id="EW_118" depart="121.00" departLane="4i_0" departPos="4.10" departSpeed="0.00" departDelay="3.00" arrival="224.00" arrivalLane="2o_0" arrivalPos="492.80" arrivalSpeed="12.58" duration="103.00" routeLength="995.70" waitingTime="11.00" waitingCount="2" stopTime="0.00" timeLoss="42.19" rerouteNo="0" devices="tripinfo_EW_118" vType="car" speedFactor="1.17" vaporized=""/>
    <tripinfo id="SN_123" depart="123.00" departLane="3i_0" departPos="4.10" departSpeed="0.00" departDelay="0.00" arrival="224.00" arrivalLane="1o_0" arrivalPos="492.80" arrivalSpeed="12.90" duration="101.00" routeLength="995.70" waitingTime="15.00" waitingCount="2" stopTime="0.00" timeLoss="40.50" rerouteNo="0" devices="tripinfo_SN_123" vType="car" speedFactor="1.18" vaporized=""/>
    <tripinfo id="WE_143" depart="143.00" departLane="1i_0" departPos="4.10" departSpeed="0.00" departDelay="0.00" arrival="226.00" arrivalLane="4o_0" arrivalPos="492.80" arrivalSpeed="9.77" duration="83.00" routeLength="995.70" waitingTime="0.00" waitingCount="0" stopTime="0.00" timeLoss="9.15" rerouteNo="0" devices="tripinfo_WE_143" vType="car" speedFactor="0.96" vaporized=""/>
    <tripinfo id="WE_146" depart="146.00" departLane="1i_0" departPos="4.10" departSpeed="0.00" departDelay="0.00" arrival="228.00" arrivalLane="4o_0" arrivalPos="492.80" arrivalSpeed="11.93" duration="82.00" routeLength="995.70" waitingTime="0.00" waitingCount="0" stopTime="0.00" timeLoss="16.69" rerouteNo="0" devices="tripinfo_WE_146" vType="car" speedFactor="1.09" vaporized=""/>
    <tripinfo id="WE_148" depart="149.00" departLane="1i_0" departPos="4.10" departSpeed="0.00" departDelay="1.00" arrival="229.00" arrivalLane="3o_0" arrivalPos="492.80" arrivalSpeed="10.48" duration="80.00" routeLength="990.53" waitingTime="1.00" waitingCount="1" stopTime="0.00" timeLoss="11.45" rerouteNo="0" devices="tripinfo_WE_148" vType="car" speedFactor="1.04" vaporized=""/>
    <tripinfo id="EW_119" depart="124.00" departLane="4i_0" departPos="4.10" departSpeed="0.00" departDelay="5.00" arrival="235.00" arrivalLane="3o_0" arrivalPos="492.80" arrivalSpeed="10.71" duration="111.00" routeLength="995.90" waitingTime="9.00" waitingCount="2" stopTime="0.00" timeLoss="39.21" rerouteNo="0" devices="tripinfo_EW_119" vType="car" speedFactor="0.99" vaporized=""/>
    <tripinfo id="EW_123" depart="127.00" departLane="4i_0" departPos="4.10" departSpeed="0.00" departDelay="4.00" arrival="238.00" arrivalLane="3o_0" arrivalPos="492.80" arrivalSpeed="9.61" duration="111.00" routeLength="995.90" waitingTime="9.00" waitingCount="2" stopTime="0.00" timeLoss="37.67" rerouteNo="0" devices="tripinfo_EW_123" vType="car" speedFactor="0.97" vaporized=""/>
    <tripinfo id="SN_133" depart="133.00" departLane="3i_0" departPos="4.10" departSpeed="0.00" departDelay="0.00" arrival="238.00" arrivalLane="1o_0" arrivalPos="492.80" arrivalSpeed="10.74" duration="105.00" routeLength="995.70" waitingTime="9.00" waitingCount="2" stopTime="0.00" timeLoss="35.91" rerouteNo="0" devices="tripinfo_SN_133" vType="car" speedFactor="1.03" vaporized=""/>
    <tripinfo id="NS_162" depart="162.00" departLane="2i_0" departPos="4.10" departSpeed="0.00" departDelay="0.00" arrival="239.00" arrivalLane="4o_0" arrivalPos="492.80" arrivalSpeed="11.23" duration="77.00" routeLength="990.53" waitingTime="1.00" waitingCount="1" stopTime="0.00" timeLoss="11.46" rerouteNo="0" devices="tripinfo_NS_162" vType="car" speedFactor="1.09" vaporized=""/>
    <tripinfo id="SN_161" depart="161.00" departLane="3i_0" departPos="4.10" departSpeed="0.00" departDelay="0.00" arrival="240.00" arrivalLane="2o_0" arrivalPos="492.80" arrivalSpeed="10.82" duration="79.00" routeLength="990.53" waitingTime="0.00" waitingCount="0" stopTime="0.00" timeLoss="11.00" rerouteNo="0" devices="tripinfo_SN_161" vType="car" speedFactor="1.04" vaporized=""/>
    <tripinfo id="WE_164" depart="164.00" departLane="1i_0" departPos="4.10" departSpeed="0.00" departDelay="0.00" arrival="248.00" arrivalLane="4o_0" arrivalPos="492.80" arrivalSpeed="10.03" duration="84.00" routeLength="995.70" waitingTime="1.00" waitingCount="1" stopTime="0.00" timeLoss="12.84" rerouteNo="0" devices="tripinfo_WE_164" vType="car" speedFactor="1.00" vaporized=""/>
    <tripinfo id="SN_169" depart="169.00" departLane="3i_0" departPos="4.10" departSpeed="0.00" departDelay="0.00" arrival="260.00" arrivalLane="2o_0" arrivalPos="492.80" arrivalSpeed="9.69" duration="91.00" routeLength="990.53" waitingTime="0.00" waitingCount="0" stopTime="0.00" timeLoss="10.06" rerouteNo="0" devices="tripinfo_SN_169" vType="car" speedFactor="0.88" vaporized=""/>
    <tripinfo id="WE_165" depart="167.00" departLane="1i_0" departPos="10.10" departSpeed="0.00" departDelay="2.00" arrival="262.00" arrivalLane="2o_0" arrivalPos="492.80" arrivalSpeed="10.15" duration="95.00" routeLength="989.90" waitingTime="1.00" waitingCount="1" stopTime="0.00" timeLoss="20.80" rerouteNo="0" devices="tripinfo_WE_165" vType="truck" speedFactor="0.95" vaporized=""/>
    <tripinfo id="WE_186" depart="186.00" departLane="1i_0" departPos="4.10" departSpeed="0.00" departDelay="0.00" arrival="264.00" arrivalLane="3o_0" arrivalPos="492.80" arrivalSpeed="10.50" duration="78.00" routeLength="990.53" waitingTime="0.00" waitingCount="0" stopTime="0.00" timeLoss="8.00" rerouteNo="0" devices="tripinfo_WE_186" vType="car" speedFactor="1.00" vaporized=""/>
    <tripinfo id="NS_173" depart="173.00" departLane="2i_0" departPos="4.10" departSpeed="0.00" departDelay="0.00" arrival="267.00" arrivalLane="4o_0" arrivalPos="492.80" arrivalSpeed="8.93" duration="94.00" routeLength="990.53" waitingTime="2.00" waitingCount="1" stopTime="0.00" timeLoss="11.78" rerouteNo="0" devices="tripinfo_NS_173" vType="car" speedFactor="0.85" vaporized=""/>
    <tripinfo id="NS_179" depart="179.00" departLane="2i_0" departPos="10.10" departSpeed="0.00" departDelay="0.00" arrival="270.00" arrivalLane="4o_0" arrivalPos="492.80" arrivalSpeed="11.30" duration="91.00" routeLength="984.53" waitingTime="0.00" waitingCount="0" stopTime="0.00" timeLoss="23.19" rerouteNo="0" devices="tripinfo_NS_179" vType="truck" speedFactor="1.05" vaporized=""/>
    <tripinfo id="EW_170" depart="172.00" departLane="4i_0" departPos="4.10" departSpeed="0.00" departDelay="2.00" arrival="274.00" arrivalLane="2o_0" arrivalPos="492.80" arrivalSpeed="9.25" duration="102.00" routeLength="995.70" waitingTime="4.00" waitingCount="1" stopTime="0.00" timeLoss="18.06" rerouteNo="0" devices="tripinfo_EW_170" vType="car" speedFactor="0.85" vaporized=""/>
    <tripinfo id="SN_189" depart="189.00" departLane="3i_0" departPos="4.10" departSpeed="0.00" departDelay="0.00" arrival="274.00" arrivalLane="4o_0" arrivalPos="492.80" arrivalSpeed="10.99" duration="85.00" routeLength="995.90" waitingTime="0.00" waitingCount="0" stopTime="0.00" timeLoss="13.24" rerouteNo="0" devices="tripinfo_SN_189" vType="car" speedFactor="1.00" vaporized=""/>
    <tripinfo id="EW_176" depart="176.00" departLane="4i_0" departPos="4.10" departSpeed="0.00" departDelay="0.00" arrival="275.00" arrivalLane="2o_0" arrivalPos="492.80" arrivalSpeed="11.94" duration="99.00" routeLength="995.70" waitingTime="4.00" waitingCount="1" stopTime="0.00" timeLoss="38.46" rerouteNo="0" devices="tripinfo_EW_176" vType="car" speedFactor="1.17" vaporized=""/>
    <tripinfo id="SN_191" depart="192.00" departLane="3i_0" departPos="4.10" departSpeed="0.00" departDelay="1.00" arrival="280.00" arrivalLane="2o_0" arrivalPos="492.80" arrivalSpeed="8.84" duration="88.00" routeLength="990.53" waitingTime="0.00" waitingCount="0" stopTime="0.00" timeLoss="9.38" rerouteNo="0" devices="tripinfo_SN_191" vType="car" speedFactor="0.90" vaporized=""/>
    <tripinfo id="NS_199" depart="199.00" departLane="2i_0" departPos="4.10" departSpeed="0.00" departDelay="0.00" arrival="280.00" arrivalLane="1o_0" arrivalPos="492.80" arrivalSpeed="10.28" duration="81.00" routeLength="995.90" waitingTime="0.00" waitingCount="0" stopTime="0.00" timeLoss="11.82" rerouteNo="0" devices="tripinfo_NS_199" vType="car" speedFactor="1.02" vaporized=""/>
    <tripinfo id="EW_179" depart="180.00" departLane="4i_0" departPos="10.10" departSpeed="0.00" departDelay="1.00" arrival="282.00" arrivalLane="2o_0" arrivalPos="492.80" arrivalSpeed="10.83" duration="102.00" routeLength="989.70" waitingTime="3.00" waitingCount="1" stopTime="0.00" timeLoss="32.34" rerouteNo="0" devices="tripinfo_EW_179" vType="truck" speedFactor="1.01" vaporized=""/>
    <tripinfo id="WE_208" depart="208.00" departLane="1i_0" departPos="4.10" departSpeed="0.00" departDelay="0.00" arrival="282.00" arrivalLane="4o_0" arrivalPos="492.80" arrivalSpeed="11.77" duration="74.00" routeLength="995.70" waitingTime="0.00" waitingCount="0" stopTime="0.00" timeLoss="10.17" rerouteNo="0" devices="tripinfo_WE_208" vType="car" speedFactor="1.12" vaporized=""/>
    <tripinfo id="WE_197" depart="197.00" departLane="1i_0" departPos="4.10" departSpeed="0.00" departDelay="0.00" arrival="285.00" arrivalLane="2o_0" arrivalPos="492.80" arrivalSpeed="11.94" duration="88.00" routeLength="995.90" waitingTime="2.00" waitingCount="1" stopTime="0.00" timeLoss="25.50" rerouteNo="0" devices="tripinfo_WE_197" vType="car" speedFactor="1.14" vaporized=""/>
    <tripinfo id="EW_200" depart="200.00" departLane="4i_0" departPos="4.10" departSpeed="0.00" departDelay="0.00" arrival="286.00" arrivalLane="1o_0" arrivalPos="492.80" arrivalSpeed="10.68" duration="86.00" routeLength="990.53" waitingTime="1.00" waitingCount="1" stopTime="0.00" timeLoss="13.26" rerouteNo="0" devices="tripinfo_EW_200" vType="car" speedFactor="0.97" vaporized=""/>
    <tripinfo id="EW_204" depart="204.00" departLane="4i_0" departPos="4.10" departSpeed="0.00" departDelay="0.00" arrival="288.00" arrivalLane="1o_0" arrivalPos="492.80" arrivalSpeed="11.15" duration="84.00" routeLength="990.53" waitingTime="3.00" waitingCount="1" stopTime="0.00" timeLoss="18.64" rerouteNo="0" devices="tripinfo_EW_204" vType="car" speedFactor="1.08" vaporized=""/>
    <tripinfo id="SN_210" depart="210.00" departLane="3i_0" departPos="4.10" departSpeed="0.00" departDelay="0.00" arrival="289.00" arrivalLane="2o_0" arrivalPos="492.80" arrivalSpeed="10.74" duration="79.00" routeLength="990.53" waitingTime="0.00" waitingCount="0" stopTime="0.00" timeLoss="9.79" rerouteNo="0" devices="tripinfo_SN_210" vType="car" speedFactor="1.02" vaporized=""/>
    <tripinfo id="SN_211" depart="213.00" departLane="3i_0" departPos="4.10" departSpeed="0.00" departDelay="2.00" arrival="295.00" arrivalLane="2o_0" arrivalPos="492.80" arrivalSpeed="10.83" duration="82.00" routeLength="990.53" waitingTime="0.00" waitingCount="0" stopTime="0.00" timeLoss="9.94" rerouteNo="0" devices="tripinfo_SN_211" vType="car" speedFactor="0.99" vaporized=""/>
    <tripinfo id="NS_214" depart="214.00" departLane="2i_0" departPos="4.10" departSpeed="0.00" departDelay="0.00" arrival="302.00" arrivalLane="1o_0" arrivalPos="492.80" arrivalSpeed="8.96" duration="88.00" routeLength="995.90" waitingTime="0.00" waitingCount="0" stopTime="0.00" timeLoss="10.15" rerouteNo="0" devices="tripinfo_NS_214" vType="car" speedFactor="0.91" vaporized=""/>
    <tripinfo id="SN_216" depart="216.00" departLane="3i_0" departPos="4.10" departSpeed="0.00" departDelay="0.00" arrival="302.00" arrivalLane="2o_0" arrivalPos="492.80" arrivalSpeed="10.04" duration="86.00" routeLength="990.53" waitingTime="0.00" waitingCount="0" stopTime="0.00" timeLoss="8.63" rerouteNo="0" devices="tripinfo_SN_216" vType="car" speedFactor="0.91" vaporized=""/>
    <tripinfo id="EW_213" depart="213.00" departLane="4i_0" departPos="4.10" departSpeed="0.00" departDelay="0.00" arrival="305.00" arrivalLane="2o_0" arrivalPos="492.80" arrivalSpeed="10.15" duration="92.00" routeLength="995.70" waitingTime="2.00" waitingCount="1" stopTime="0.00" timeLoss="16.48" rerouteNo="0" devices="tripinfo_EW_213" vType="car" speedFactor="0.94" vaporized=""/>
    <tripinfo id="WE_227" depart="227.00" departLane="1i_0" departPos="4.10" departSpeed="0.00" departDelay="0.00" arrival="305.00" arrivalLane="3o_0" arrivalPos="492.80" arrivalSpeed="11.03" duration="78.00" routeLength="990.53" waitingTime="0.00" waitingCount="0" stopTime="0.00" timeLoss="8.48" rerouteNo="0" devices="tripinfo_WE_227" vType="car" speedFactor="1.02" vaporized=""/>
    <tripinfo id="WE_214" depart="216.00" departLane="1i_0" departPos="4.10" departSpeed="0.00" departDelay="2.00" arrival="307.00" arrivalLane="4o_0" arrivalPos="492.80" arrivalSpeed="9.04" duration="91.00" routeLength="995.70" waitingTime="0.00" waitingCount="0" stopTime="0.00" timeLoss="10.79" rerouteNo="0" devices="tripinfo_WE_214" vType="car" speedFactor="0.88" vaporized=""/>
    <tripinfo id="SN_221" depart="221.00" departLane="3i_0" departPos="4.10" departSpeed="0.00" departDelay="0.00" arrival="307.00" arrivalLane="2o_0" arrivalPos="492.80" arrivalSpeed="10.32" duration="86.00" routeLength="990.53" waitingTime="2.00" waitingCount="1" stopTime="0.00" timeLoss="16.75" rerouteNo="0" devices="tripinfo_SN_221" vType="car" speedFactor="1.02" vaporized=""/>
    <tripinfo id="WE_229" depart="230.00" departLane="1i_0" departPos="4.10" departSpeed="0.00" departDelay="1.00" arrival="313.00" arrivalLane="3o_0" arrivalPos="492.80" arrivalSpeed="9.97" duration="83.00" routeLength="990.53" waitingTime="0.00" waitingCount="0" stopTime="0.00" timeLoss="10.10" rerouteNo="0" devices="tripinfo_WE_229" vType="car" speedFactor="0.97" vaporized=""/>
    <tripinfo id="NS_217" depart="224.00" departLane="2i_0" departPos="10.10" departSpeed="0.00" departDelay="7.00" arrival="315.00" arrivalLane="3o_0" arrivalPos="492.80" arrivalSpeed="11.06" duration="91.00" routeLength="989.70" waitingTime="0.00" waitingCount="0" stopTime="0.00" timeLoss="22.17" rerouteNo="0" devices="tripinfo_NS_217" vType="truck" speedFactor="1.02" vaporized=""/>
    <tripinfo id="NS_231" depart="231.00" departLane="2i_0" departPos="4.10" departSpeed="0.00" departDelay="0.00" arrival="320.00" arrivalLane="1o_0" arrivalPos="492.80" arrivalSpeed="9.39" duration="89.00" routeLength="995.90" waitingTime="0.00" waitingCount="0" stopTime="0.00" timeLoss="13.69" rerouteNo="0" devices="tripinfo_NS_231" vType="car" speedFactor="0.94" vaporized=""/>
    <tripinfo id="NS_251" depart="251.00" departLane="2i_0" departPos="4.10" departSpeed="0.00" departDelay="0.00" arrival="329.00" arrivalLane="4o_0" arrivalPos="492.80" arrivalSpeed="10.65" duration="78.00" routeLength="990.53" waitingTime="0.00" waitingCount="0" stopTime="0.00" timeLoss="8.22" rerouteNo="0" devices="tripinfo_NS_251" vType="car" speedFactor="1.01" vaporized=""/>
    <tripinfo id="EW_237" depart="239.00" departLane="4i_0" departPos="4.10" departSpeed="0.00" departDelay="2.00" arrival="332.00" arrivalLane="1o_0" arrivalPos="492.80" arrivalSpeed="9.96" duration="93.00" routeLength="990.53" waitingTime="7.00" waitingCount="1" stopTime="0.00" timeLoss="21.11" rerouteNo="0" devices="tripinfo_EW_237" vType="car" speedFactor="0.98" vaporized=""/>
    <tripinfo id="EW_252" depart="252.00" departLane="4i_0" departPos="4.10" departSpeed="0.00" departDelay="0.00" arrival="333.00" arrivalLane="1o_0" arrivalPos="492.80" arrivalSpeed="11.33" duration="81.00" routeLength="990.53" waitingTime="0.00" waitingCount="0" stopTime="0.00" timeLoss="16.46" rerouteNo="0" devices="tripinfo_EW_252" vType="car" speedFactor="1.09" vaporized=""/>