<?xml version="1.0" encoding="UTF-8"?>

<!-- generated on 2024-05-05 16:41:39 by Eclipse SUMO sumo Version 1.19.0
<configuration xmlns:xsi="http://www.w3.org/2001/XMLSchema-instance" xsi:noNamespaceSchemaLocation="http://sumo.dlr.de/xsd/sumoConfiguration.xsd">

    <input>
        <net-file value="twoone.net.xml"/>
        <route-files value="route_gen.rou.xml"/>
    </input>

    <output>
        <tripinfo-output value="tripinfo_epi189.xml"/>
    </output>

    <report>
        <no-warnings value="true"/>
    </report>

    <traci_server>
        <remote-port value="37071"/>
    </traci_server>

</configuration>
-->

<tripinfos xmlns:xsi="http://www.w3.org/2001/XMLSchema-instance" xsi:noNamespaceSchemaLocation="http://sumo.dlr.de/xsd/tripinfo_file.xsd">
    <tripinfo id="WE_1" depart="1.00" departLane="1i_0" departPos="4.10" departSpeed="0.00" departDelay="0.00" arrival="75.00" arrivalLane="2o_0" arrivalPos="492.80" arrivalSpeed="10.70" duration="74.00" routeLength="995.90" waitingTime="0.00" waitingCount="0" stopTime="0.00" timeLoss="7.17" rerouteNo="0" devices="tripinfo_WE_1" vType="car" speedFactor="1.06" vaporized=""/>
    <tripinfo id="WE_6" depart="6.00" departLane="1i_0" departPos="4.10" departSpeed="0.00" departDelay="0.00" arrival="82.00" arrivalLane="4o_0" arrivalPos="492.80" arrivalSpeed="10.99" duration="76.00" routeLength="995.70" waitingTime="0.00" waitingCount="0" stopTime="0.00" timeLoss="10.07" rerouteNo="0" devices="tripinfo_WE_6" vType="car" speedFactor="1.08" vaporized=""/>
    <tripinfo id="WE_8" depart="8.00" departLane="1i_0" departPos="4.10" departSpeed="0.00" departDelay="0.00" arrival="86.00" arrivalLane="2o_0" arrivalPos="492.80" arrivalSpeed="10.68" duration="78.00" routeLength="995.90" waitingTime="0.00" waitingCount="0" stopTime="0.00" timeLoss="8.38" rerouteNo="0" devices="tripinfo_WE_8" vType="car" speedFactor="1.03" vaporized=""/>
    <tripinfo id="SN_3" depart="3.00" departLane="3i_0" departPos="4.10" departSpeed="0.00" departDelay="0.00" arrival="90.00" arrivalLane="4o_0" arrivalPos="492.80" arrivalSpeed="10.46" duration="87.00" routeLength="995.90" waitingTime="7.00" waitingCount="1" stopTime="0.00" timeLoss="16.80" rerouteNo="0" devices="tripinfo_SN_3" vType="car" speedFactor="1.01" vaporized=""/>
    <tripinfo id="NS_10" depart="10.00" departLane="2i_0" departPos="4.10" departSpeed="0.00" departDelay="0.00" arrival="92.00" arrivalLane="1o_0" arrivalPos="492.80" arrivalSpeed="11.58" duration="82.00" routeLength="995.90" waitingTime="2.00" waitingCount="1" stopTime="0.00" timeLoss="13.42" rerouteNo="0" devices="tripinfo_NS_10" vType="car" speedFactor="1.05" vaporized=""/>
    <tripinfo id="EW_3" depart="3.00" departLane="4i_0" departPos="4.10" departSpeed="0.00" departDelay="0.00" arrival="93.00" arrivalLane="3o_0" arrivalPos="492.80" arrivalSpeed="9.60" duration="90.00" routeLength="995.90" waitingTime="2.00" waitingCount="1" stopTime="0.00" timeLoss="14.74" rerouteNo="0" devices="tripinfo_EW_3" vType="car" speedFactor="0.94" vaporized=""/>
    <tripinfo id="WE_13" depart="13.00" departLane="1i_0" departPos="4.10" departSpeed="0.00" departDelay="0.00" arrival="96.00" arrivalLane="3o_0" arrivalPos="492.80" arrivalSpeed="10.17" duration="83.00" routeLength="990.53" waitingTime="0.00" waitingCount="0" stopTime="0.00" timeLoss="8.07" rerouteNo="0" devices="tripinfo_WE_13" vType="car" speedFactor="0.94" vaporized=""/>
    <tripinfo id="NS_23" depart="23.00" departLane="2i_0" departPos="4.10" departSpeed="0.00" departDelay="0.00" arrival="100.00" arrivalLane="4o_0" arrivalPos="492.80" arrivalSpeed="10.51" duration="77.00" routeLength="990.53" waitingTime="0.00" waitingCount="0" stopTime="0.00" timeLoss="8.09" rerouteNo="0" devices="tripinfo_NS_23" vType="car" speedFactor="1.03" vaporized=""/>
    <tripinfo id="EW_11" depart="11.00" departLane="4i_0" departPos="4.10" departSpeed="0.00" departDelay="0.00" arrival="103.00" arrivalLane="3o_0" arrivalPos="492.80" arrivalSpeed="8.93" duration="92.00" routeLength="995.90" waitingTime="0.00" waitingCount="0" stopTime="0.00" timeLoss="11.42" rerouteNo="0" devices="tripinfo_EW_11" vType="car" speedFactor="0.89" vaporized=""/>
    <tripinfo id="WE_18" depart="18.00" departLane="1i_0" departPos="4.10" departSpeed="0.00" departDelay="0.00" arrival="104.00" arrivalLane="3o_0" arrivalPos="492.80" arrivalSpeed="10.94" duration="86.00" routeLength="990.53" waitingTime="1.00" waitingCount="1" stopTime="0.00" timeLoss="21.48" rerouteNo="0" devices="tripinfo_WE_18" vType="car" speedFactor="1.09" vaporized=""/>
    <tripinfo id="NS_26" depart="26.00" departLane="2i_0" departPos="4.10" departSpeed="0.00" departDelay="0.00" arrival="106.00" arrivalLane="3o_0" arrivalPos="492.80" arrivalSpeed="11.67" duration="80.00" routeLength="995.70" waitingTime="0.00" waitingCount="0" stopTime="0.00" timeLoss="16.69" rerouteNo="0" devices="tripinfo_NS_26" vType="car" speedFactor="1.12" vaporized=""/>
    <tripinfo id="EW_15" depart="15.00" departLane="4i_0" departPos="4.10" departSpeed="0.00" departDelay="0.00" arrival="107.00" arrivalLane="2o_0" arrivalPos="492.80" arrivalSpeed="9.49" duration="92.00" routeLength="995.70" waitingTime="0.00" waitingCount="0" stopTime="0.00" timeLoss="9.43" rerouteNo="0" devices="tripinfo_EW_15" vType="car" speedFactor="0.86" vaporized=""/>
    <tripinfo id="SN_27" depart="27.00" departLane="3i_0" departPos="4.10" departSpeed="0.00" departDelay="0.00" arrival="112.00" arrivalLane="4o_0" arrivalPos="492.80" arrivalSpeed="9.43" duration="85.00" routeLength="995.90" waitingTime="0.00" waitingCount="0" stopTime="0.00" timeLoss="8.50" rerouteNo="0" devices="tripinfo_SN_27" vType="car" speedFactor="0.93" vaporized=""/>
    <tripinfo id="SN_9" depart="9.00" departLane="3i_0" departPos="4.10" departSpeed="0.00" departDelay="0.00" arrival="114.00" arrivalLane="1o_0" arrivalPos="492.80" arrivalSpeed="9.12" duration="105.00" routeLength="995.70" waitingTime="2.00" waitingCount="1" stopTime="0.00" timeLoss="19.42" rerouteNo="0" devices="tripinfo_SN_9" vType="car" speedFactor="0.83" vaporized=""/>
    <tripinfo id="NS_27" depart="29.00" departLane="2i_0" departPos="4.10" departSpeed="0.00" departDelay="2.00" arrival="114.00" arrivalLane="4o_0" arrivalPos="492.80" arrivalSpeed="10.35" duration="85.00" routeLength="990.53" waitingTime="0.00" waitingCount="0" stopTime="0.00" timeLoss="13.65" rerouteNo="0" devices="tripinfo_NS_27" vType="car" speedFactor="0.99" vaporized=""/>
    <tripinfo id="EW_26" depart="26.00" departLane="4i_0" departPos="4.10" departSpeed="0.00" departDelay="0.00" arrival="116.00" arrivalLane="1o_0" arrivalPos="492.80" arrivalSpeed="11.53" duration="90.00" routeLength="990.53" waitingTime="0.00" waitingCount="0" stopTime="0.00" timeLoss="22.07" rerouteNo="0" devices="tripinfo_EW_26" vType="car" speedFactor="1.05" vaporized=""/>
    <tripinfo id="WE_35" depart="35.00" departLane="1i_0" departPos="4.10" departSpeed="0.00" departDelay="0.00" arrival="120.00" arrivalLane="2o_0" arrivalPos="492.80" arrivalSpeed="9.26" duration="85.00" routeLength="995.90" waitingTime="0.00" waitingCount="0" stopTime="0.00" timeLoss="9.57" rerouteNo="0" devices="tripinfo_WE_35" vType="car" speedFactor="0.94" vaporized=""/>
    <tripinfo id="NS_44" depart="44.00" departLane="2i_0" departPos="4.10" departSpeed="0.00" departDelay="0.00" arrival="122.00" arrivalLane="4o_0" arrivalPos="492.80" arrivalSpeed="10.16" duration="78.00" routeLength="990.53" waitingTime="0.00" waitingCount="0" stopTime="0.00" timeLoss="8.35" rerouteNo="0" devices="tripinfo_NS_44" vType="car" speedFactor="1.02" vaporized=""/>
    <tripinfo id="NS_29" depart="32.00" departLane="2i_0" departPos="4.10" departSpeed="0.00" departDelay="3.00" arrival="126.00" arrivalLane="3o_0" arrivalPos="492.80" arrivalSpeed="9.50" duration="94.00" routeLength="995.70" waitingTime="1.00" waitingCount="1" stopTime="0.00" timeLoss="12.96" rerouteNo="0" devices="tripinfo_NS_29" vType="car" speedFactor="0.88" vaporized=""/>
    <tripinfo id="WE_49" depart="49.00" departLane="1i_0" departPos="4.10" departSpeed="0.00" departDelay="0.00" arrival="129.00" arrivalLane="4o_0" arrivalPos="492.80" arrivalSpeed="10.07" duration="80.00" routeLength="995.70" waitingTime="0.00" waitingCount="0" stopTime="0.00" timeLoss="10.03" rerouteNo="0" devices="tripinfo_WE_49" vType="car" speedFactor="1.01" vaporized=""/>
    <tripinfo id="EW_51" depart="51.00" departLane="4i_0" departPos="4.10" departSpeed="0.00" departDelay="0.00" arrival="142.00" arrivalLane="1o_0" arrivalPos="492.80" arrivalSpeed="9.77" duration="91.00" routeLength="990.53" waitingTime="6.00" waitingCount="1" stopTime="0.00" timeLoss="18.76" rerouteNo="0" devices="tripinfo_EW_51" vType="car" speedFactor="0.97" vaporized=""/>
    <tripinfo id="SN_41" depart="41.00" departLane="3i_0" departPos="4.10" departSpeed="0.00" departDelay="0.00" arrival="145.00" arrivalLane="4o_0" arrivalPos="492.80" arrivalSpeed="9.85" duration="104.00" routeLength="995.90" waitingTime="18.00" waitingCount="1" stopTime="0.00" timeLoss="27.94" rerouteNo="0" devices="tripinfo_SN_41" vType="car" speedFactor="0.94" vaporized=""/>
    <tripinfo id="SN_43" depart="44.00" departLane="3i_0" departPos="4.10" departSpeed="0.00" departDelay="1.00" arrival="148.00" arrivalLane="2o_0" arrivalPos="492.80" arrivalSpeed="12.65" duration="104.00" routeLength="990.53" waitingTime="25.00" waitingCount="2" stopTime="0.00" timeLoss="42.90" rerouteNo="0" devices="tripinfo_SN_43" vType="car" speedFactor="1.16" vaporized=""/>
    <tripinfo id="EW_63" depart="63.00" departLane="4i_0" departPos="4.10" departSpeed="0.00" departDelay="0.00" arrival="162.00" arrivalLane="3o_0" arrivalPos="492.80" arrivalSpeed="9.33" duration="99.00" routeLength="995.90" waitingTime="4.00" waitingCount="1" stopTime="0.00" timeLoss="18.91" rerouteNo="0" devices="tripinfo_EW_63" vType="car" speedFactor="0.89" vaporized=""/>
    <tripinfo id="WE_73" depart="73.00" departLane="1i_0" departPos="4.10" departSpeed="0.00" departDelay="0.00" arrival="163.00" arrivalLane="3o_0" arrivalPos="492.80" arrivalSpeed="9.92" duration="90.00" routeLength="990.53" waitingTime="4.00" waitingCount="1" stopTime="0.00" timeLoss="15.82" rerouteNo="0" devices="tripinfo_WE_73" vType="car" speedFactor="0.95" vaporized=""/>
    <tripinfo id="WE_86" depart="86.00" departLane="1i_0" departPos="4.10" departSpeed="0.00" departDelay="0.00" arrival="170.00" arrivalLane="4o_0" arrivalPos="492.80" arrivalSpeed="12.02" duration="84.00" routeLength="995.70" waitingTime="9.00" waitingCount="1" stopTime="0.00" timeLoss="23.10" rerouteNo="0" devices="tripinfo_WE_86" vType="car" speedFactor="1.17" vaporized=""/>
    <tripinfo id="EW_64" depart="66.00" departLane="4i_0" departPos="4.10" departSpeed="0.00" departDelay="2.00" arrival="171.00" arrivalLane="1o_0" arrivalPos="492.80" arrivalSpeed="8.62" duration="105.00" routeLength="990.53" waitingTime="3.00" waitingCount="2" stopTime="0.00" timeLoss="19.38" rerouteNo="0" devices="tripinfo_EW_64" vType="car" speedFactor="0.83" vaporized=""/>
    <tripinfo id="EW_65" depart="69.00" departLane="4i_0" departPos="4.10" departSpeed="0.00" departDelay="4.00" arrival="171.00" arrivalLane="2o_0" arrivalPos="492.80" arrivalSpeed="8.40" duration="102.00" routeLength="995.70" waitingTime="0.00" waitingCount="0" stopTime="0.00" timeLoss="20.50" rerouteNo="0" devices="tripinfo_EW_65" vType="car" speedFactor="0.87" vaporized=""/>
    <tripinfo id="WE_97" depart="97.00" departLane="1i_0" departPos="4.10" departSpeed="0.00" departDelay="0.00" arrival="171.00" arrivalLane="3o_0" arrivalPos="492.80" arrivalSpeed="11.81" duration="74.00" routeLength="990.53" waitingTime="0.00" waitingCount="0" stopTime="0.00" timeLoss="13.94" rerouteNo="0" devices="tripinfo_WE_97" vType="car" speedFactor="1.18" vaporized=""/>
    <tripinfo id="SN_68" depart="68.00" departLane="3i_0" departPos="4.10" departSpeed="0.00" departDelay="0.00" arrival="173.00" arrivalLane="1o_0" arrivalPos="492.80" arrivalSpeed="9.98" duration="105.00" routeLength="995.70" waitingTime="4.00" waitingCount="2" stopTime="0.00" timeLoss="27.31" rerouteNo="0" devices="tripinfo_SN_68" vType="car" speedFactor="0.92" vaporized=""/>
    <tripinfo id="NS_83" depart="83.00" departLane="2i_0" departPos="10.10" departSpeed="0.00" departDelay="0.00" arrival="175.00" arrivalLane="1o_0" arrivalPos="492.80" arrivalSpeed="11.07" duration="92.00" routeLength="989.90" waitingTime="0.00" waitingCount="0" stopTime="0.00" timeLoss="21.51" rerouteNo="0" devices="tripinfo_NS_83" vType="truck" speedFactor="1.00" vaporized=""/>
    <tripinfo id="NS_90" depart="90.00" departLane="2i_0" departPos="4.10" departSpeed="0.00" departDelay="0.00" arrival="177.00" arrivalLane="1o_0" arrivalPos="492.80" arrivalSpeed="9.98" duration="87.00" routeLength="995.90" waitingTime="0.00" waitingCount="0" stopTime="0.00" timeLoss="15.92" rerouteNo="0" devices="tripinfo_NS_90" vType="car" speedFactor="0.99" vaporized=""/>
    <tripinfo id="NS_94" depart="94.00" departLane="2i_0" departPos="4.10" departSpeed="0.00" departDelay="0.00" arrival="179.00" arrivalLane="1o_0" arrivalPos="492.80" arrivalSpeed="10.35" duration="85.00" routeLength="995.90" waitingTime="0.00" waitingCount="0" stopTime="0.00" timeLoss="15.49" rerouteNo="0" devices="tripinfo_NS_94" vType="car" speedFactor="1.02" vaporized=""/>
    <tripinfo id="NS_102" depart="102.00" departLane="2i_0" departPos="4.10" departSpeed="0.00" departDelay="0.00" arrival="181.00" arrivalLane="1o_0" arrivalPos="492.80" arrivalSpeed="11.12" duration="79.00" routeLength="995.90" waitingTime="0.00" waitingCount="0" stopTime="0.00" timeLoss="9.84" rerouteNo="0" devices="tripinfo_NS_102" vType="car" speedFactor="1.03" vaporized=""/>
    <tripinfo id="EW_76" depart="76.00" departLane="4i_0" departPos="4.10" departSpeed="0.00" departDelay="0.00" arrival="182.00" arrivalLane="2o_0" arrivalPos="492.80" arrivalSpeed="11.97" duration="106.00" routeLength="995.70" waitingTime="19.00" waitingCount="1" stopTime="0.00" timeLoss="43.29" rerouteNo="0" devices="tripinfo_EW_76" vType="car" speedFactor="1.13" vaporized=""/>
    <tripinfo id="NS_104" depart="105.00" departLane="2i_0" departPos="4.10" departSpeed="0.00" departDelay="1.00" arrival="183.00" arrivalLane="1o_0" arrivalPos="492.80" arrivalSpeed="10.88" duration="78.00" routeLength="995.90" waitingTime="0.00" waitingCount="0" stopTime="0.00" timeLoss="12.45" rerouteNo="0" devices="tripinfo_NS_104" vType="car" speedFactor="1.09" vaporized=""/>
    <tripinfo id="SN_80" depart="80.00" departLane="3i_0" departPos="4.10" departSpeed="0.00" departDelay="0.00" arrival="184.00" arrivalLane="4o_0" arrivalPos="492.80" arrivalSpeed="11.60" duration="104.00" routeLength="995.90" waitingTime="18.00" waitingCount="1" stopTime="0.00" timeLoss="42.59" rerouteNo="0" devices="tripinfo_SN_80" vType="car" speedFactor="1.15" vaporized=""/>
    <tripinfo id="SN_77" depart="77.00" departLane="3i_0" departPos="4.10" departSpeed="0.00" departDelay="0.00" arrival="193.00" arrivalLane="1o_0" arrivalPos="492.80" arrivalSpeed="9.11" duration="116.00" routeLength="995.70" waitingTime="21.00" waitingCount="2" stopTime="0.00" timeLoss="39.62" rerouteNo="0" devices="tripinfo_SN_77" vType="car" speedFactor="0.93" vaporized=""/>
    <tripinfo id="EW_78" depart="79.00" departLane="4i_0" departPos="4.10" departSpeed="0.00" departDelay="1.00" arrival="194.00" arrivalLane="1o_0" arrivalPos="492.80" arrivalSpeed="12.85" duration="115.00" routeLength="990.53" waitingTime="21.00" waitingCount="2" stopTime="0.00" timeLoss="55.22" rerouteNo="0" devices="tripinfo_EW_78" vType="car" speedFactor="1.18" vaporized=""/>
    <tripinfo id="EW_96" depart="96.00" departLane="4i_0" departPos="10.10" departSpeed="0.00" departDelay="0.00" arrival="198.00" arrivalLane="3o_0" arrivalPos="492.80" arrivalSpeed="10.56" duration="102.00" routeLength="989.90" waitingTime="3.00" waitingCount="1" stopTime="0.00" timeLoss="30.02" rerouteNo="0" devices="tripinfo_EW_96" vType="truck" speedFactor="0.99" vaporized=""/>
    <tripinfo id="SN_100" depart="100.00" departLane="3i_0" departPos="4.10" departSpeed="0.00" departDelay="0.00" arrival="198.00" arrivalLane="2o_0" arrivalPos="492.80" arrivalSpeed="8.90" duration="98.00" routeLength="990.53" waitingTime="5.00" waitingCount="1" stopTime="0.00" timeLoss="19.83" rerouteNo="0" devices="tripinfo_SN_100" vType="car" speedFactor="0.90" vaporized=""/>
    <tripinfo id="SN_103" depart="104.00" departLane="3i_0" departPos="4.10" departSpeed="0.00" departDelay="1.00" arrival="200.00" arrivalLane="2o_0" arrivalPos="492.80" arrivalSpeed="9.75" duration="96.00" routeLength="990.53" waitingTime="3.00" waitingCount="1" stopTime="0.00" timeLoss="22.17" rerouteNo="0" devices="tripinfo_SN_103" vType="car" speedFactor="0.96" vaporized=""/>
    <tripinfo id="SN_114" depart="114.00" departLane="3i_0" departPos="4.10" departSpeed="0.00" departDelay="0.00" arrival="202.00" arrivalLane="2o_0" arrivalPos="492.80" arrivalSpeed="11.00" duration="88.00" routeLength="990.53" waitingTime="0.00" waitingCount="0" stopTime="0.00" timeLoss="19.61" rerouteNo="0" devices="tripinfo_SN_114" vType="car" speedFactor="1.04" vaporized=""/>
    <tripinfo id="SN_116" depart="116.00" departLane="3i_0" departPos="4.10" departSpeed="0.00" departDelay="0.00" arrival="202.00" arrivalLane="1o_0" arrivalPos="492.80" arrivalSpeed="10.39" duration="86.00" routeLength="995.70" waitingTime="1.00" waitingCount="1" stopTime="0.00" timeLoss="18.18" rerouteNo="0" devices="tripinfo_SN_116" vType="car" speedFactor="1.04" vaporized=""/>
    <tripinfo id="WE_123" depart="123.00" departLane="1i_0" departPos="4.10" departSpeed="0.00" departDelay="0.00" arrival="203.00" arrivalLane="3o_0" arrivalPos="492.80" arrivalSpeed="10.69" duration="80.00" routeLength="990.53" waitingTime="0.00" waitingCount="0" stopTime="0.00" timeLoss="8.91" rerouteNo="0" devices="tripinfo_WE_123" vType="car" speedFactor="1.00" vaporized=""/>
    <tripinfo id="EW_99" depart="100.00" departLane="4i_0" departPos="4.10" departSpeed="0.00" departDelay="1.00" arrival="204.00" arrivalLane="2o_0" arrivalPos="492.80" arrivalSpeed="12.19" duration="104.00" routeLength="995.70" waitingTime="1.00" waitingCount="1" stopTime="0.00" timeLoss="39.11" rerouteNo="0" devices="tripinfo_EW_99" vType="car" speedFactor="1.10" vaporized=""/>
    <tripinfo id="SN_119" depart="119.00" departLane="3i_0" departPos="4.10" departSpeed="0.00" departDelay="0.00" arrival="205.00" arrivalLane="2o_0" arrivalPos="492.80" arrivalSpeed="11.18" duration="86.00" routeLength="990.53" waitingTime="0.00" waitingCount="0" stopTime="0.00" timeLoss="21.37" rerouteNo="0" devices="tripinfo_SN_119" vType="car" speedFactor="1.09" vaporized=""/>
    <tripinfo id="NS_123" depart="123.00" departLane="2i_0" departPos="4.10" departSpeed="0.00" departDelay="0.00" arrival="212.00" arrivalLane="4o_0" arrivalPos="492.80" arrivalSpeed="9.08" duration="89.00" routeLength="990.53" waitingTime="1.00" waitingCount="1" stopTime="0.00" timeLoss="10.67" rerouteNo="0" devices="tripinfo_NS_123" vType="car" speedFactor="0.90" vaporized=""/>
    <tripinfo id="NS_126" depart="126.00" departLane="2i_0" departPos="4.10" departSpeed="0.00" departDelay="0.00" arrival="217.00" arrivalLane="4o_0" arrivalPos="492.80" arrivalSpeed="9.46" duration="91.00" routeLength="990.53" waitingTime="0.00" waitingCount="0" stopTime="0.00" timeLoss="10.56" rerouteNo="0" devices="tripinfo_NS_126" vType="car" speedFactor="0.88" vaporized=""/>
    <tripinfo id="WE_134" depart="134.00" departLane="1i_0" departPos="4.10" departSpeed="0.00" departDelay="0.00" arrival="219.00" arrivalLane="4o_0" arrivalPos="492.80" arrivalSpeed="12.86" duration="85.00" routeLength="995.70" waitingTime="0.00" waitingCount="0" stopTime="0.00" timeLoss="23.95" rerouteNo="0" devices="tripinfo_WE_134" vType="car" speedFactor="1.17" vaporized=""/>
    <tripinfo id="WE_139" depart="139.00" departLane="1i_0" departPos="4.10" departSpeed="0.00" departDelay="0.00" arrival="219.00" arrivalLane="2o_0" arrivalPos="492.80" arrivalSpeed="10.75" duration="80.00" routeLength="995.90" waitingTime="0.00" waitingCount="0" stopTime="0.00" timeLoss="8.74" rerouteNo="0" devices="tripinfo_WE_139" vType="car" speedFactor="1.00" vaporized=""/>
    <tripinfo id="WE_137" depart="137.00" departLane="1i_0" departPos="4.10" departSpeed="0.00" departDelay="0.00" arrival="221.00" arrivalLane="4o_0" arrivalPos="492.80" arrivalSpeed="11.97" duration="84.00" routeLength="995.70" waitingTime="0.00" waitingCount="0" stopTime="0.00" timeLoss="18.74" rerouteNo="0" devices="tripinfo_WE_137" vType="car" speedFactor="1.10" vaporized=""/>
    <tripinfo id="NS_143" depart="143.00" departLane="2i_0" departPos="4.10" departSpeed="0.00" departDelay="0.00" arrival="224.00" arrivalLane="3o_0" arrivalPos="492.80" arrivalSpeed="11.29" duration="81.00" routeLength="995.70" waitingTime="0.00" waitingCount="0" stopTime="0.00" timeLoss="11.38" rerouteNo="0" devices="tripinfo_NS_143" vType="car" speedFactor="1.02" vaporized=""/>
    <tripinfo id="NS_140" depart="140.00" departLane="2i_0" departPos="4.10" departSpeed="0.00" departDelay="0.00" arrival="228.00" arrivalLane="4o_0" arrivalPos="492.80" arrivalSpeed="9.76" duration="88.00" routeLength="990.53" waitingTime="0.00" waitingCount="0" stopTime="0.00" timeLoss="8.97" rerouteNo="0" devices="tripinfo_NS_140" vType="car" speedFactor="0.90" vaporized=""/>
    <tripinfo id="EW_140" depart="140.00" departLane="4i_0" departPos="4.10" departSpeed="0.00" departDelay="0.00" arrival="234.00" arrivalLane="2o_0" arrivalPos="492.80" arrivalSpeed="10.13" duration="94.00" routeLength="995.70" waitingTime="5.00" waitingCount="1" stopTime="0.00" timeLoss="23.17" rerouteNo="0" devices="tripinfo_EW_140" vType="car" speedFactor="1.00" vaporized=""/>
    <tripinfo id="EW_142" depart="143.00" departLane="4i_0" departPos="4.10" departSpeed="0.00" departDelay="1.00" arrival="237.00" arrivalLane="2o_0" arrivalPos="492.80" arrivalSpeed="11.40" duration="94.00" routeLength="995.70" waitingTime="8.00" waitingCount="2" stopTime="0.00" timeLoss="32.29" rerouteNo="0" devices="tripinfo_EW_142" vType="car" speedFactor="1.14" vaporized=""/>
    <tripinfo id="EW_132" depart="132.00" departLane="4i_0" departPos="4.10" departSpeed="0.00" departDelay="0.00" arrival="238.00" arrivalLane="3o_0" arrivalPos="492.80" arrivalSpeed="9.29" duration="106.00" routeLength="995.90" waitingTime="11.00" waitingCount="1" stopTime="0.00" timeLoss="22.19" rerouteNo="0" devices="tripinfo_EW_132" vType="car" speedFactor="0.85" vaporized=""/>
    <tripinfo id="WE_158" depart="158.00" departLane="1i_0" departPos="4.10" departSpeed="0.00" departDelay="0.00" arrival="239.00" arrivalLane="3o_0" arrivalPos="492.80" arrivalSpeed="11.02" duration="81.00" routeLength="990.53" waitingTime="0.00" waitingCount="0" stopTime="0.00" timeLoss="18.05" rerouteNo="0" devices="tripinfo_WE_158" vType="car" speedFactor="1.12" vaporized=""/>
    <tripinfo id="SN_133" depart="133.00" departLane="3i_0" departPos="4.10" departSpeed="0.00" departDelay="0.00" arrival="241.00" arrivalLane="1o_0" arrivalPos="492.80" arrivalSpeed="9.33" duration="108.00" routeLength="995.70" waitingTime="11.00" waitingCount="2" stopTime="0.00" timeLoss="25.00" rerouteNo="0" devices="tripinfo_SN_133" vType="car" speedFactor="0.85" vaporized=""/>
    <tripinfo id="SN_135" depart="136.00" departLane="3i_0" departPos="4.10" departSpeed="0.00" departDelay="1.00" arrival="243.00" arrivalLane="1o_0" arrivalPos="492.80" arrivalSpeed="10.53" duration="107.00" routeLength="995.70" waitingTime="9.00" waitingCount="1" stopTime="0.00" timeLoss="36.99" rerouteNo="0" devices="tripinfo_SN_135" vType="car" speedFactor="1.02" vaporized=""/>
    <tripinfo id="NS_153" depart="153.00" departLane="2i_0" departPos="4.10" departSpeed="0.00" departDelay="0.00" arrival="246.00" arrivalLane="3o_0" arrivalPos="492.80" arrivalSpeed="11.31" duration="93.00" routeLength="995.70" waitingTime="15.00" waitingCount="1" stopTime="0.00" timeLoss="27.37" rerouteNo="0" devices="tripinfo_NS_153" vType="car" speedFactor="1.08" vaporized=""/>
    <tripinfo id="WE_162" depart="162.00" departLane="1i_0" departPos="4.10" departSpeed="0.00" departDelay="0.00" arrival="246.00" arrivalLane="2o_0" arrivalPos="492.80" arrivalSpeed="10.78" duration="84.00" routeLength="995.90" waitingTime="0.00" waitingCount="0" stopTime="0.00" timeLoss="12.33" rerouteNo="0" devices="tripinfo_WE_162" vType="car" speedFactor="0.99" vaporized=""/>
    <tripinfo id="SN_158" depart="158.00" departLane="3i_0" departPos="10.10" departSpeed="0.00" departDelay="0.00" arrival="251.00" arrivalLane="2o_0" arrivalPos="492.80" arrivalSpeed="10.95" duration="93.00" routeLength="984.53" waitingTime="2.00" waitingCount="1" stopTime="0.00" timeLoss="22.92" rerouteNo="0" devices="tripinfo_SN_158" vType="truck" speedFactor="1.01" vaporized=""/>
    <tripinfo id="NS_168" depart="168.00" departLane="2i_0" departPos="4.10" departSpeed="0.00" departDelay="0.00" arrival="255.00" arrivalLane="1o_0" arrivalPos="492.80" arrivalSpeed="9.41" duration="87.00" routeLength="995.90" waitingTime="0.00" waitingCount="0" stopTime="0.00" timeLoss="9.57" rerouteNo="0" devices="tripinfo_NS_168" vType="car" speedFactor="0.91" vaporized=""/>
    <tripinfo id="EW_147" depart="147.00" departLane="4i_0" departPos="4.10" departSpeed="0.00" departDelay="0.00" arrival="256.00" arrivalLane="3o_0" arrivalPos="492.80" arrivalSpeed="10.68" duration="109.00" routeLength="995.90" waitingTime="10.00" waitingCount="3" stopTime="0.00" timeLoss="35.52" rerouteNo="0" devices="tripinfo_EW_147" vType="car" speedFactor="0.97" vaporized=""/>
    <tripinfo id="EW_178" depart="178.00" departLane="4i_0" departPos="4.10" departSpeed="0.00" departDelay="0.00" arrival="260.00" arrivalLane="1o_0" arrivalPos="492.80" arrivalSpeed="10.19" duration="82.00" routeLength="990.53" waitingTime="0.00" waitingCount="0" stopTime="0.00" timeLoss="8.78" rerouteNo="0" devices="tripinfo_EW_178" vType="car" speedFactor="0.97" vaporized=""/>
    <tripinfo id="WE_165" depart="166.00" departLane="1i_0" departPos="10.10" departSpeed="0.00" departDelay="1.00" arrival="261.00" arrivalLane="2o_0" arrivalPos="492.80" arrivalSpeed="10.51" duration="95.00" routeLength="989.90" waitingTime="1.00" waitingCount="1" stopTime="0.00" timeLoss="21.88" rerouteNo="0" devices="tripinfo_WE_165" vType="truck" speedFactor="0.97" vaporized=""/>
    <tripinfo id="WE_166" depart="171.00" departLane="1i_0" departPos="4.10" departSpeed="0.00" departDelay="5.00" arrival="268.00" arrivalLane="3o_0" arrivalPos="492.80" arrivalSpeed="8.77" duration="97.00" routeLength="990.53" waitingTime="0.00" waitingCount="0" stopTime="0.00" timeLoss="17.39" rerouteNo="0" devices="tripinfo_WE_166" vType="car" speedFactor="0.88" vaporized=""/>
    <tripinfo id="SN_167" depart="167.00" departLane="3i_0" departPos="4.10" departSpeed="0.00" departDelay="0.00" arrival="269.00" arrivalLane="4o_0" arrivalPos="492.80" arrivalSpeed="8.78" duration="102.00" routeLength="995.90" waitingTime="3.00" waitingCount="1" stopTime="0.00" timeLoss="24.04" rerouteNo="0" devices="tripinfo_SN_167" vType="car" speedFactor="0.91" vaporized=""/>
    <tripinfo id="WE_180" depart="183.00" departLane="1i_0" departPos="10.10" departSpeed="0.00" departDelay="3.00" arrival="271.00" arrivalLane="3o_0" arrivalPos="492.80" arrivalSpeed="10.64" duration="88.00" routeLength="984.53" waitingTime="0.00" waitingCount="0" stopTime="0.00" timeLoss="15.10" rerouteNo="0" devices="tripinfo_WE_180" vType="truck" speedFactor="0.97" vaporized=""/>
    <tripinfo id="WE_192" depart="194.00" departLane="1i_0" departPos="4.10" departSpeed="0.00" departDelay="2.00" arrival="272.00" arrivalLane="2o_0" arrivalPos="492.80" arrivalSpeed="10.77" duration="78.00" routeLength="995.90" waitingTime="0.00" waitingCount="0" stopTime="0.00" timeLoss="8.89" rerouteNo="0" devices="tripinfo_WE_192" vType="car" speedFactor="1.03" vaporized=""/>
    <tripinfo id="NS_169" depart="171.00" departLane="2i_0" departPos="4.10" departSpeed="0.00" departDelay="2.00" arrival="274.00" arrivalLane="3o_0" arrivalPos="492.80" arrivalSpeed="10.62" duration="103.00" routeLength="995.70" waitingTime="20.00" waitingCount="1" stopTime="0.00" timeLoss="35.15" rerouteNo="0" devices="tripinfo_NS_169" vType="car" speedFactor="1.04" vaporized=""/>
    <tripinfo id="SN_174" depart="174.00" departLane="3i_0" departPos="4.10" departSpeed="0.00" departDelay="0.00" arrival="276.00" arrivalLane="2o_0" arrivalPos="492.80" arrivalSpeed="11.17" duration="102.00" routeLength="990.53" waitingTime="12.00" waitingCount="2" stopTime="0.00" timeLoss="32.52" rerouteNo="0" devices="tripinfo_SN_174" vType="car" speedFactor="1.02" vaporized=""/>
    <tripinfo id="EW_186" depart="186.00" departLane="4i_0" departPos="4.10" departSpeed="0.00" departDelay="0.00" arrival="279.00" arrivalLane="2o_0" arrivalPos="492.80" arrivalSpeed="11.07" duration="93.00" routeLength="995.70" waitingTime="10.00" waitingCount="2" stopTime="0.00" timeLoss="25.55" rerouteNo="0" devices="tripinfo_EW_186" vType="car" speedFactor="1.06" vaporized=""/>
    <tripinfo id="NS_173" depart="175.00" departLane="2i_0" departPos="10.10" departSpeed="0.00" departDelay="2.00" arrival="282.00" arrivalLane="4o_0" arrivalPos="492.80" arrivalSpeed="10.98" duration="107.00" routeLength="984.53" waitingTime="13.00" waitingCount="2" stopTime="0.00" timeLoss="37.90" rerouteNo="0" devices="tripinfo_NS_173" vType="truck" speedFactor="1.01" vaporized=""/>
    <tripinfo id="WE_202" depart="202.00" departLane="1i_0" departPos="4.10" departSpeed="0.00" departDelay="0.00" arrival="282.00" arrivalLane="3o_0" arrivalPos="492.80" arrivalSpeed="12.01" duration="80.00" routeLength="990.53" waitingTime="0.00" waitingCount="0" stopTime="0.00" timeLoss="14.58" rerouteNo="0" devices="tripinfo_WE_202" vType="car" speedFactor="1.09" vaporized=""/>