<?xml version="1.0" encoding="UTF-8"?>

<!-- generated on 2024-05-05 16:07:00 by Eclipse SUMO sumo Version 1.19.0
<configuration xmlns:xsi="http://www.w3.org/2001/XMLSchema-instance" xsi:noNamespaceSchemaLocation="http://sumo.dlr.de/xsd/sumoConfiguration.xsd">

    <input>
        <net-file value="twoone.net.xml"/>
        <route-files value="route_gen.rou.xml"/>
    </input>

    <output>
        <tripinfo-output value="tripinfo_epi97.xml"/>
    </output>

    <report>
        <no-warnings value="true"/>
    </report>

    <traci_server>
        <remote-port value="58909"/>
    </traci_server>

</configuration>
-->

<tripinfos xmlns:xsi="http://www.w3.org/2001/XMLSchema-instance" xsi:noNamespaceSchemaLocation="http://sumo.dlr.de/xsd/tripinfo_file.xsd">
    <tripinfo id="WE_1" depart="1.00" departLane="1i_0" departPos="4.10" departSpeed="0.00" departDelay="0.00" arrival="77.00" arrivalLane="4o_0" arrivalPos="492.80" arrivalSpeed="11.77" duration="76.00" routeLength="995.70" waitingTime="0.00" waitingCount="0" stopTime="0.00" timeLoss="9.08" rerouteNo="0" devices="tripinfo_WE_1" vType="car" speedFactor="1.06" vaporized=""/>
    <tripinfo id="SN_3" depart="3.00" departLane="3i_0" departPos="4.10" departSpeed="0.00" departDelay="0.00" arrival="81.00" arrivalLane="2o_0" arrivalPos="492.80" arrivalSpeed="10.01" duration="78.00" routeLength="990.53" waitingTime="0.00" waitingCount="0" stopTime="0.00" timeLoss="8.22" rerouteNo="0" devices="tripinfo_SN_3" vType="car" speedFactor="1.01" vaporized=""/>
    <tripinfo id="WE_9" depart="9.00" departLane="1i_0" departPos="4.10" departSpeed="0.00" departDelay="0.00" arrival="86.00" arrivalLane="4o_0" arrivalPos="492.80" arrivalSpeed="11.27" duration="77.00" routeLength="995.70" waitingTime="0.00" waitingCount="0" stopTime="0.00" timeLoss="10.98" rerouteNo="0" devices="tripinfo_WE_9" vType="car" speedFactor="1.08" vaporized=""/>
    <tripinfo id="NS_3" depart="3.00" departLane="2i_0" departPos="4.10" departSpeed="0.00" departDelay="0.00" arrival="88.00" arrivalLane="1o_0" arrivalPos="492.80" arrivalSpeed="10.33" duration="85.00" routeLength="995.90" waitingTime="0.00" waitingCount="0" stopTime="0.00" timeLoss="8.91" rerouteNo="0" devices="tripinfo_NS_3" vType="car" speedFactor="0.94" vaporized=""/>
    <tripinfo id="EW_9" depart="9.00" departLane="4i_0" departPos="4.10" departSpeed="0.00" departDelay="0.00" arrival="91.00" arrivalLane="2o_0" arrivalPos="492.80" arrivalSpeed="10.68" duration="82.00" routeLength="995.70" waitingTime="1.00" waitingCount="1" stopTime="0.00" timeLoss="13.32" rerouteNo="0" devices="tripinfo_EW_9" vType="car" speedFactor="1.03" vaporized=""/>
    <tripinfo id="EW_13" depart="13.00" departLane="4i_0" departPos="4.10" departSpeed="0.00" departDelay="0.00" arrival="92.00" arrivalLane="1o_0" arrivalPos="492.80" arrivalSpeed="10.99" duration="79.00" routeLength="990.53" waitingTime="0.00" waitingCount="0" stopTime="0.00" timeLoss="11.67" rerouteNo="0" devices="tripinfo_EW_13" vType="car" speedFactor="1.05" vaporized=""/>
    <tripinfo id="NS_26" depart="26.00" departLane="2i_0" departPos="4.10" departSpeed="0.00" departDelay="0.00" arrival="100.00" arrivalLane="1o_0" arrivalPos="492.80" arrivalSpeed="11.72" duration="74.00" routeLength="995.90" waitingTime="0.00" waitingCount="0" stopTime="0.00" timeLoss="8.85" rerouteNo="0" devices="tripinfo_NS_26" vType="car" speedFactor="1.09" vaporized=""/>
    <tripinfo id="WE_15" depart="15.00" departLane="1i_0" departPos="4.10" departSpeed="0.00" departDelay="0.00" arrival="103.00" arrivalLane="3o_0" arrivalPos="492.80" arrivalSpeed="9.09" duration="88.00" routeLength="990.53" waitingTime="0.00" waitingCount="0" stopTime="0.00" timeLoss="8.43" rerouteNo="0" devices="tripinfo_WE_15" vType="car" speedFactor="0.89" vaporized=""/>
    <tripinfo id="SN_11" depart="11.00" departLane="3i_0" departPos="4.10" departSpeed="0.00" departDelay="0.00" arrival="106.00" arrivalLane="4o_0" arrivalPos="492.80" arrivalSpeed="8.88" duration="95.00" routeLength="995.90" waitingTime="0.00" waitingCount="0" stopTime="0.00" timeLoss="9.46" rerouteNo="0" devices="tripinfo_SN_11" vType="car" speedFactor="0.83" vaporized=""/>
    <tripinfo id="WE_25" depart="25.00" departLane="1i_0" departPos="4.10" departSpeed="0.00" departDelay="0.00" arrival="108.00" arrivalLane="3o_0" arrivalPos="492.80" arrivalSpeed="9.89" duration="83.00" routeLength="990.53" waitingTime="0.00" waitingCount="0" stopTime="0.00" timeLoss="7.65" rerouteNo="0" devices="tripinfo_WE_25" vType="car" speedFactor="0.94" vaporized=""/>
    <tripinfo id="SN_25" depart="25.00" departLane="3i_0" departPos="4.10" departSpeed="0.00" departDelay="0.00" arrival="117.00" arrivalLane="4o_0" arrivalPos="492.80" arrivalSpeed="8.62" duration="92.00" routeLength="995.90" waitingTime="0.00" waitingCount="0" stopTime="0.00" timeLoss="9.23" rerouteNo="0" devices="tripinfo_SN_25" vType="car" speedFactor="0.86" vaporized=""/>
    <tripinfo id="WE_39" depart="39.00" departLane="1i_0" departPos="4.10" departSpeed="0.00" departDelay="0.00" arrival="131.00" arrivalLane="4o_0" arrivalPos="492.80" arrivalSpeed="10.27" duration="92.00" routeLength="995.70" waitingTime="1.00" waitingCount="1" stopTime="0.00" timeLoss="15.04" rerouteNo="0" devices="tripinfo_WE_39" vType="car" speedFactor="0.93" vaporized=""/>
    <tripinfo id="NS_39" depart="39.00" departLane="2i_0" departPos="4.10" departSpeed="0.00" departDelay="0.00" arrival="132.00" arrivalLane="3o_0" arrivalPos="492.80" arrivalSpeed="9.16" duration="93.00" routeLength="995.70" waitingTime="0.00" waitingCount="0" stopTime="0.00" timeLoss="12.12" rerouteNo="0" devices="tripinfo_NS_39" vType="car" speedFactor="0.88" vaporized=""/>
    <tripinfo id="SN_30" depart="30.00" departLane="3i_0" departPos="10.10" departSpeed="0.00" departDelay="0.00" arrival="133.00" arrivalLane="4o_0" arrivalPos="492.80" arrivalSpeed="10.85" duration="103.00" routeLength="989.90" waitingTime="11.00" waitingCount="2" stopTime="0.00" timeLoss="33.44" rerouteNo="0" devices="tripinfo_SN_30" vType="truck" speedFactor="1.01" vaporized=""/>
    <tripinfo id="SN_32" depart="34.00" departLane="3i_0" departPos="4.10" departSpeed="0.00" departDelay="2.00" arrival="133.00" arrivalLane="2o_0" arrivalPos="492.80" arrivalSpeed="10.94" duration="99.00" routeLength="990.53" waitingTime="10.00" waitingCount="2" stopTime="0.00" timeLoss="31.34" rerouteNo="0" devices="tripinfo_SN_32" vType="car" speedFactor="1.05" vaporized=""/>
    <tripinfo id="EW_45" depart="45.00" departLane="4i_0" departPos="4.10" departSpeed="0.00" departDelay="0.00" arrival="133.00" arrivalLane="1o_0" arrivalPos="492.80" arrivalSpeed="12.32" duration="88.00" routeLength="990.53" waitingTime="8.00" waitingCount="2" stopTime="0.00" timeLoss="26.54" rerouteNo="0" devices="tripinfo_EW_45" vType="car" speedFactor="1.16" vaporized=""/>
    <tripinfo id="SN_33" depart="37.00" departLane="3i_0" departPos="4.10" departSpeed="0.00" departDelay="4.00" arrival="137.00" arrivalLane="1o_0" arrivalPos="492.80" arrivalSpeed="11.99" duration="100.00" routeLength="995.70" waitingTime="7.00" waitingCount="2" stopTime="0.00" timeLoss="37.04" rerouteNo="0" devices="tripinfo_SN_33" vType="car" speedFactor="1.12" vaporized=""/>
    <tripinfo id="EW_38" depart="38.00" departLane="4i_0" departPos="4.10" departSpeed="0.00" departDelay="0.00" arrival="138.00" arrivalLane="2o_0" arrivalPos="492.80" arrivalSpeed="10.02" duration="100.00" routeLength="995.70" waitingTime="13.00" waitingCount="2" stopTime="0.00" timeLoss="28.44" rerouteNo="0" devices="tripinfo_EW_38" vType="car" speedFactor="0.99" vaporized=""/>
    <tripinfo id="WE_41" depart="42.00" departLane="1i_0" departPos="4.10" departSpeed="0.00" departDelay="1.00" arrival="149.00" arrivalLane="2o_0" arrivalPos="492.80" arrivalSpeed="10.22" duration="107.00" routeLength="995.90" waitingTime="14.00" waitingCount="3" stopTime="0.00" timeLoss="31.26" rerouteNo="0" devices="tripinfo_WE_41" vType="car" speedFactor="0.94" vaporized=""/>
    <tripinfo id="WE_48" depart="48.00" departLane="1i_0" departPos="4.10" departSpeed="0.00" departDelay="0.00" arrival="151.00" arrivalLane="4o_0" arrivalPos="492.80" arrivalSpeed="10.39" duration="103.00" routeLength="995.70" waitingTime="11.00" waitingCount="2" stopTime="0.00" timeLoss="32.98" rerouteNo="0" devices="tripinfo_WE_48" vType="car" speedFactor="1.01" vaporized=""/>
    <tripinfo id="EW_53" depart="53.00" departLane="4i_0" departPos="4.10" departSpeed="0.00" departDelay="0.00" arrival="153.00" arrivalLane="1o_0" arrivalPos="492.80" arrivalSpeed="8.64" duration="100.00" routeLength="990.53" waitingTime="3.00" waitingCount="1" stopTime="0.00" timeLoss="20.91" rerouteNo="0" devices="tripinfo_EW_53" vType="car" speedFactor="0.89" vaporized=""/>
    <tripinfo id="SN_44" depart="44.00" departLane="3i_0" departPos="4.10" departSpeed="0.00" departDelay="0.00" arrival="154.00" arrivalLane="2o_0" arrivalPos="492.80" arrivalSpeed="10.14" duration="110.00" routeLength="990.53" waitingTime="10.00" waitingCount="3" stopTime="0.00" timeLoss="34.64" rerouteNo="0" devices="tripinfo_SN_44" vType="car" speedFactor="0.94" vaporized=""/>
    <tripinfo id="SN_46" depart="46.00" departLane="3i_0" departPos="4.10" departSpeed="0.00" departDelay="0.00" arrival="156.00" arrivalLane="2o_0" arrivalPos="492.80" arrivalSpeed="10.58" duration="110.00" routeLength="990.53" waitingTime="8.00" waitingCount="2" stopTime="0.00" timeLoss="40.59" rerouteNo="0" devices="tripinfo_SN_46" vType="car" speedFactor="1.02" vaporized=""/>
    <tripinfo id="NS_64" depart="64.00" departLane="2i_0" departPos="4.10" departSpeed="0.00" departDelay="0.00" arrival="159.00" arrivalLane="1o_0" arrivalPos="492.80" arrivalSpeed="9.63" duration="95.00" routeLength="995.90" waitingTime="2.00" waitingCount="2" stopTime="0.00" timeLoss="17.43" rerouteNo="0" devices="tripinfo_NS_64" vType="car" speedFactor="0.92" vaporized=""/>
    <tripinfo id="NS_58" depart="58.00" departLane="2i_0" departPos="4.10" departSpeed="0.00" departDelay="0.00" arrival="161.00" arrivalLane="3o_0" arrivalPos="492.80" arrivalSpeed="9.06" duration="103.00" routeLength="995.70" waitingTime="4.00" waitingCount="1" stopTime="0.00" timeLoss="16.74" rerouteNo="0" devices="tripinfo_NS_58" vType="car" speedFactor="0.83" vaporized=""/>
    <tripinfo id="NS_74" depart="74.00" departLane="2i_0" departPos="4.10" departSpeed="0.00" departDelay="0.00" arrival="161.00" arrivalLane="1o_0" arrivalPos="492.80" arrivalSpeed="9.88" duration="87.00" routeLength="995.90" waitingTime="0.00" waitingCount="0" stopTime="0.00" timeLoss="11.79" rerouteNo="0" devices="tripinfo_NS_74" vType="car" speedFactor="0.95" vaporized=""/>
    <tripinfo id="SN_59" depart="59.00" departLane="3i_0" departPos="4.10" departSpeed="0.00" departDelay="0.00" arrival="162.00" arrivalLane="2o_0" arrivalPos="492.80" arrivalSpeed="9.30" duration="103.00" routeLength="990.53" waitingTime="4.00" waitingCount="1" stopTime="0.00" timeLoss="22.58" rerouteNo="0" devices="tripinfo_SN_59" vType="car" speedFactor="0.87" vaporized=""/>
    <tripinfo id="NS_82" depart="82.00" departLane="2i_0" departPos="4.10" departSpeed="0.00" departDelay="0.00" arrival="162.00" arrivalLane="3o_0" arrivalPos="492.80" arrivalSpeed="10.00" duration="80.00" routeLength="995.70" waitingTime="0.00" waitingCount="0" stopTime="0.00" timeLoss="18.85" rerouteNo="0" devices="tripinfo_NS_82" vType="car" speedFactor="1.15" vaporized=""/>
    <tripinfo id="EW_79" depart="79.00" departLane="4i_0" departPos="4.10" departSpeed="0.00" departDelay="0.00" arrival="163.00" arrivalLane="1o_0" arrivalPos="492.80" arrivalSpeed="9.78" duration="84.00" routeLength="990.53" waitingTime="0.00" waitingCount="0" stopTime="0.00" timeLoss="8.32" rerouteNo="0" devices="tripinfo_EW_79" vType="car" speedFactor="0.93" vaporized=""/>
    <tripinfo id="EW_81" depart="81.00" departLane="4i_0" departPos="4.10" departSpeed="0.00" departDelay="0.00" arrival="164.00" arrivalLane="2o_0" arrivalPos="492.80" arrivalSpeed="12.28" duration="83.00" routeLength="995.70" waitingTime="2.00" waitingCount="2" stopTime="0.00" timeLoss="22.75" rerouteNo="0" devices="tripinfo_EW_81" vType="car" speedFactor="1.18" vaporized=""/>
    <tripinfo id="SN_77" depart="77.00" departLane="3i_0" departPos="4.10" departSpeed="0.00" departDelay="0.00" arrival="165.00" arrivalLane="1o_0" arrivalPos="492.80" arrivalSpeed="12.00" duration="88.00" routeLength="995.70" waitingTime="5.00" waitingCount="1" stopTime="0.00" timeLoss="25.14" rerouteNo="0" devices="tripinfo_SN_77" vType="car" speedFactor="1.13" vaporized=""/>
    <tripinfo id="WE_87" depart="88.00" departLane="1i_0" departPos="4.10" departSpeed="0.00" departDelay="1.00" arrival="166.00" arrivalLane="2o_0" arrivalPos="492.80" arrivalSpeed="11.88" duration="78.00" routeLength="995.90" waitingTime="2.00" waitingCount="1" stopTime="0.00" timeLoss="17.80" rerouteNo="0" devices="tripinfo_WE_87" vType="car" speedFactor="1.17" vaporized=""/>
    <tripinfo id="WE_51" depart="51.00" departLane="1i_0" departPos="4.10" departSpeed="0.00" departDelay="0.00" arrival="167.00" arrivalLane="4o_0" arrivalPos="492.80" arrivalSpeed="10.81" duration="116.00" routeLength="995.70" waitingTime="16.00" waitingCount="2" stopTime="0.00" timeLoss="43.15" rerouteNo="0" devices="tripinfo_WE_51" vType="car" speedFactor="0.97" vaporized=""/>
    <tripinfo id="SN_91" depart="91.00" departLane="3i_0" departPos="4.10" departSpeed="0.00" departDelay="0.00" arrival="169.00" arrivalLane="4o_0" arrivalPos="492.80" arrivalSpeed="12.04" duration="78.00" routeLength="995.90" waitingTime="0.00" waitingCount="0" stopTime="0.00" timeLoss="17.25" rerouteNo="0" devices="tripinfo_SN_91" vType="car" speedFactor="1.18" vaporized=""/>
    <tripinfo id="NS_83" depart="85.00" departLane="2i_0" departPos="4.10" departSpeed="0.00" departDelay="2.00" arrival="173.00" arrivalLane="1o_0" arrivalPos="492.80" arrivalSpeed="10.68" duration="88.00" routeLength="995.90" waitingTime="3.00" waitingCount="1" stopTime="0.00" timeLoss="17.81" rerouteNo="0" devices="tripinfo_NS_83" vType="car" speedFactor="1.01" vaporized=""/>
    <tripinfo id="WE_88" depart="92.00" departLane="1i_0" departPos="4.10" departSpeed="0.00" departDelay="4.00" arrival="178.00" arrivalLane="3o_0" arrivalPos="492.80" arrivalSpeed="10.12" duration="86.00" routeLength="990.53" waitingTime="1.00" waitingCount="1" stopTime="0.00" timeLoss="14.70" rerouteNo="0" devices="tripinfo_WE_88" vType="car" speedFactor="0.99" vaporized=""/>
    <tripinfo id="NS_90" depart="91.00" departLane="2i_0" departPos="4.10" departSpeed="0.00" departDelay="1.00" arrival="181.00" arrivalLane="3o_0" arrivalPos="492.80" arrivalSpeed="10.28" duration="90.00" routeLength="995.70" waitingTime="1.00" waitingCount="1" stopTime="0.00" timeLoss="17.52" rerouteNo="0" devices="tripinfo_NS_90" vType="car" speedFactor="0.97" vaporized=""/>
    <tripinfo id="NS_101" depart="101.00" departLane="2i_0" departPos="4.10" departSpeed="0.00" departDelay="0.00" arrival="183.00" arrivalLane="3o_0" arrivalPos="492.80" arrivalSpeed="11.33" duration="82.00" routeLength="995.70" waitingTime="0.00" waitingCount="0" stopTime="0.00" timeLoss="13.17" rerouteNo="0" devices="tripinfo_NS_101" vType="car" speedFactor="1.03" vaporized=""/>
    <tripinfo id="WE_90" depart="95.00" departLane="1i_0" departPos="4.10" departSpeed="0.00" departDelay="5.00" arrival="185.00" arrivalLane="4o_0" arrivalPos="492.80" arrivalSpeed="10.53" duration="90.00" routeLength="995.70" waitingTime="2.00" waitingCount="1" stopTime="0.00" timeLoss="20.54" rerouteNo="0" devices="tripinfo_WE_90" vType="car" speedFactor="1.02" vaporized=""/>
    <tripinfo id="WE_99" depart="100.00" departLane="1i_0" departPos="4.10" departSpeed="0.00" departDelay="1.00" arrival="185.00" arrivalLane="2o_0" arrivalPos="492.80" arrivalSpeed="11.74" duration="85.00" routeLength="995.90" waitingTime="2.00" waitingCount="1" stopTime="0.00" timeLoss="20.74" rerouteNo="0" devices="tripinfo_WE_99" vType="car" speedFactor="1.10" vaporized=""/>
    <tripinfo id="NS_105" depart="105.00" departLane="2i_0" departPos="4.10" departSpeed="0.00" departDelay="0.00" arrival="192.00" arrivalLane="4o_0" arrivalPos="492.80" arrivalSpeed="9.35" duration="87.00" routeLength="990.53" waitingTime="3.00" waitingCount="1" stopTime="0.00" timeLoss="13.16" rerouteNo="0" devices="tripinfo_NS_105" vType="car" speedFactor="0.96" vaporized=""/>
    <tripinfo id="NS_114" depart="114.00" departLane="2i_0" departPos="4.10" departSpeed="0.00" departDelay="0.00" arrival="195.00" arrivalLane="3o_0" arrivalPos="492.80" arrivalSpeed="10.87" duration="81.00" routeLength="995.70" waitingTime="1.00" waitingCount="1" stopTime="0.00" timeLoss="13.11" rerouteNo="0" devices="tripinfo_NS_114" vType="car" speedFactor="1.04" vaporized=""/>
    <tripinfo id="SN_123" depart="123.00" departLane="3i_0" departPos="4.10" departSpeed="0.00" departDelay="0.00" arrival="197.00" arrivalLane="2o_0" arrivalPos="492.80" arrivalSpeed="11.11" duration="74.00" routeLength="990.53" waitingTime="0.00" waitingCount="0" stopTime="0.00" timeLoss="8.77" rerouteNo="0" devices="tripinfo_SN_123" vType="car" speedFactor="1.09" vaporized=""/>
    <tripinfo id="WE_101" depart="103.00" departLane="1i_0" departPos="4.10" departSpeed="0.00" departDelay="2.00" arrival="201.00" arrivalLane="4o_0" arrivalPos="492.80" arrivalSpeed="9.57" duration="98.00" routeLength="995.70" waitingTime="0.00" waitingCount="0" stopTime="0.00" timeLoss="19.64" rerouteNo="0" devices="tripinfo_WE_101" vType="car" speedFactor="0.90" vaporized=""/>
    <tripinfo id="WE_111" depart="112.00" departLane="1i_0" departPos="4.10" departSpeed="0.00" departDelay="1.00" arrival="202.00" arrivalLane="2o_0" arrivalPos="492.80" arrivalSpeed="10.84" duration="90.00" routeLength="995.90" waitingTime="0.00" waitingCount="0" stopTime="0.00" timeLoss="21.47" rerouteNo="0" devices="tripinfo_WE_111" vType="car" speedFactor="1.04" vaporized=""/>
    <tripinfo id="WE_108" depart="108.00" departLane="1i_0" departPos="10.10" departSpeed="0.00" departDelay="0.00" arrival="204.00" arrivalLane="4o_0" arrivalPos="492.80" arrivalSpeed="11.10" duration="96.00" routeLength="989.70" waitingTime="1.00" waitingCount="1" stopTime="0.00" timeLoss="27.72" rerouteNo="0" devices="tripinfo_WE_108" vType="truck" speedFactor="1.05" vaporized=""/>
    <tripinfo id="EW_128" depart="128.00" departLane="4i_0" departPos="4.10" departSpeed="0.00" departDelay="0.00" arrival="213.00" arrivalLane="2o_0" arrivalPos="492.80" arrivalSpeed="10.30" duration="85.00" routeLength="995.70" waitingTime="2.00" waitingCount="1" stopTime="0.00" timeLoss="13.53" rerouteNo="0" devices="tripinfo_EW_128" vType="car" speedFactor="1.00" vaporized=""/>
    <tripinfo id="WE_129" depart="129.00" departLane="1i_0" departPos="10.10" departSpeed="0.00" departDelay="0.00" arrival="216.00" arrivalLane="3o_0" arrivalPos="492.80" arrivalSpeed="10.48" duration="87.00" routeLength="984.53" waitingTime="0.00" waitingCount="0" stopTime="0.00" timeLoss="13.22" rerouteNo="0" devices="tripinfo_WE_129" vType="truck" speedFactor="0.95" vaporized=""/>
    <tripinfo id="EW_132" depart="133.00" departLane="4i_0" departPos="4.10" departSpeed="0.00" departDelay="1.00" arrival="227.00" arrivalLane="2o_0" arrivalPos="492.80" arrivalSpeed="9.19" duration="94.00" routeLength="995.70" waitingTime="0.00" waitingCount="0" stopTime="0.00" timeLoss="10.34" rerouteNo="0" devices="tripinfo_EW_132" vType="car" speedFactor="0.85" vaporized=""/>
    <tripinfo id="EW_146" depart="146.00" departLane="4i_0" departPos="4.10" departSpeed="0.00" departDelay="0.00" arrival="227.00" arrivalLane="3o_0" arrivalPos="492.80" arrivalSpeed="10.49" duration="81.00" routeLength="995.90" waitingTime="0.00" waitingCount="0" stopTime="0.00" timeLoss="9.03" rerouteNo="0" devices="tripinfo_EW_146" vType="car" speedFactor="1.00" vaporized=""/>
    <tripinfo id="SN_137" depart="137.00" departLane="3i_0" departPos="4.10" departSpeed="0.00" departDelay="0.00" arrival="230.00" arrivalLane="4o_0" arrivalPos="492.80" arrivalSpeed="8.39" duration="93.00" routeLength="995.90" waitingTime="0.00" waitingCount="0" stopTime="0.00" timeLoss="10.09" rerouteNo="0" devices="tripinfo_SN_137" vType="car" speedFactor="0.85" vaporized=""/>
    <tripinfo id="WE_140" depart="140.00" departLane="1i_0" departPos="4.10" departSpeed="0.00" departDelay="0.00" arrival="231.00" arrivalLane="3o_0" arrivalPos="492.80" arrivalSpeed="10.30" duration="91.00" routeLength="990.53" waitingTime="4.00" waitingCount="2" stopTime="0.00" timeLoss="21.52" rerouteNo="0" devices="tripinfo_WE_140" vType="car" speedFactor="1.02" vaporized=""/>
    <tripinfo id="WE_131" depart="133.00" departLane="1i_0" departPos="4.10" departSpeed="0.00" departDelay="2.00" arrival="232.00" arrivalLane="4o_0" arrivalPos="492.80" arrivalSpeed="8.89" duration="99.00" routeLength="995.70" waitingTime="2.00" waitingCount="1" stopTime="0.00" timeLoss="18.06" rerouteNo="0" devices="tripinfo_WE_131" vType="car" speedFactor="0.88" vaporized=""/>
    <tripinfo id="SN_145" depart="146.00" departLane="3i_0" departPos="4.10" departSpeed="0.00" departDelay="1.00" arrival="232.00" arrivalLane="1o_0" arrivalPos="492.80" arrivalSpeed="10.05" duration="86.00" routeLength="995.70" waitingTime="0.00" waitingCount="0" stopTime="0.00" timeLoss="15.54" rerouteNo="0" devices="tripinfo_SN_145" vType="car" speedFactor="1.00" vaporized=""/>
    <tripinfo id="SN_139" depart="140.00" departLane="3i_0" departPos="4.10" departSpeed="0.00" departDelay="1.00" arrival="234.00" arrivalLane="4o_0" arrivalPos="492.80" arrivalSpeed="12.13" duration="94.00" routeLength="995.90" waitingTime="0.00" waitingCount="0" stopTime="0.00" timeLoss="32.95" rerouteNo="0" devices="tripinfo_SN_139" vType="car" speedFactor="1.17" vaporized=""/>
    <tripinfo id="EW_151" depart="151.00" departLane="4i_0" departPos="10.10" departSpeed="0.00" departDelay="0.00" arrival="234.00" arrivalLane="3o_0" arrivalPos="492.80" arrivalSpeed="10.79" duration="83.00" routeLength="989.90" waitingTime="0.00" waitingCount="0" stopTime="0.00" timeLoss="13.13" rerouteNo="0" devices="tripinfo_EW_151" vType="truck" speedFactor="1.01" vaporized=""/>
    <tripinfo id="SN_140" depart="143.00" departLane="3i_0" departPos="4.10" departSpeed="0.00" departDelay="3.00" arrival="235.00" arrivalLane="4o_0" arrivalPos="492.80" arrivalSpeed="11.69" duration="92.00" routeLength="995.90" waitingTime="0.00" waitingCount="0" stopTime="0.00" timeLoss="27.47" rerouteNo="0" devices="tripinfo_SN_140" vType="car" speedFactor="1.10" vaporized=""/>
    <tripinfo id="NS_156" depart="156.00" departLane="2i_0" departPos="4.10" departSpeed="0.00" departDelay="0.00" arrival="236.00" arrivalLane="3o_0" arrivalPos="492.80" arrivalSpeed="11.79" duration="80.00" routeLength="995.70" waitingTime="1.00" waitingCount="1" stopTime="0.00" timeLoss="16.82" rerouteNo="0" devices="tripinfo_NS_156" vType="car" speedFactor="1.12" vaporized=""/>
    <tripinfo id="WE_147" depart="147.00" departLane="1i_0" departPos="4.10" departSpeed="0.00" departDelay="0.00" arrival="237.00" arrivalLane="4o_0" arrivalPos="492.80" arrivalSpeed="11.98" duration="90.00" routeLength="995.70" waitingTime="4.00" waitingCount="2" stopTime="0.00" timeLoss="27.86" rerouteNo="0" devices="tripinfo_WE_147" vType="car" speedFactor="1.14" vaporized=""/>
    <tripinfo id="SN_146" depart="148.00" departLane="3i_0" departPos="4.10" departSpeed="0.00" departDelay="2.00" arrival="239.00" arrivalLane="2o_0" arrivalPos="492.80" arrivalSpeed="8.95" duration="91.00" routeLength="990.53" waitingTime="0.00" waitingCount="0" stopTime="0.00" timeLoss="12.52" rerouteNo="0" devices="tripinfo_SN_146" vType="car" speedFactor="0.90" vaporized=""/>
    <tripinfo id="SN_151" depart="152.00" departLane="3i_0" departPos="4.10" departSpeed="0.00" departDelay="1.00" arrival="245.00" arrivalLane="1o_0" arrivalPos="492.80" arrivalSpeed="10.11" duration="93.00" routeLength="995.70" waitingTime="3.00" waitingCount="1" stopTime="0.00" timeLoss="19.44" rerouteNo="0" devices="tripinfo_SN_151" vType="car" speedFactor="0.97" vaporized=""/>
    <tripinfo id="SN_154" depart="155.00" departLane="3i_0" departPos="4.10" departSpeed="0.00" departDelay="1.00" arrival="247.00" arrivalLane="1o_0" arrivalPos="492.80" arrivalSpeed="11.74" duration="92.00" routeLength="995.70" waitingTime="3.00" waitingCount="1" stopTime="0.00" timeLoss="25.83" rerouteNo="0" devices="tripinfo_SN_154" vType="car" speedFactor="1.08" vaporized=""/>
    <tripinfo id="WE_158" depart="161.00" departLane="1i_0" departPos="4.10" departSpeed="0.00" departDelay="3.00" arrival="247.00" arrivalLane="4o_0" arrivalPos="492.80" arrivalSpeed="10.01" duration="86.00" routeLength="995.70" waitingTime="1.00" waitingCount="1" stopTime="0.00" timeLoss="16.02" rerouteNo="0" devices="tripinfo_WE_158" vType="car" speedFactor="1.02" vaporized=""/>
    <tripinfo id="NS_160" depart="160.00" departLane="2i_0" departPos="10.10" departSpeed="0.00" departDelay="0.00" arrival="252.00" arrivalLane="3o_0" arrivalPos="492.80" arrivalSpeed="10.66" duration="92.00" routeLength="989.70" waitingTime="0.00" waitingCount="0" stopTime="0.00" timeLoss="20.60" rerouteNo="0" devices="tripinfo_NS_160" vType="truck" speedFactor="0.99" vaporized=""/>
    <tripinfo id="NS_165" depart="166.00" departLane="2i_0" departPos="4.10" departSpeed="0.00" departDelay="1.00" arrival="261.00" arrivalLane="1o_0" arrivalPos="492.80" arrivalSpeed="9.47" duration="95.00" routeLength="995.90" waitingTime="1.00" waitingCount="1" stopTime="0.00" timeLoss="19.35" rerouteNo="0" devices="tripinfo_NS_165" vType="car" speedFactor="0.94" vaporized=""/>
    <tripinfo id="EW_167" depart="169.00" departLane="4i_0" departPos="4.10" departSpeed="0.00" departDelay="2.00" arrival="262.00" arrivalLane="2o_0" arrivalPos="492.80" arrivalSpeed="9.37" duration="93.00" routeLength="995.70" waitingTime="0.00" waitingCount="0" stopTime="0.00" timeLoss="12.80" rerouteNo="0" devices="tripinfo_EW_167" vType="car" speedFactor="0.88" vaporized=""/>
    <tripinfo id="WE_171" depart="171.00" departLane="1i_0" departPos="4.10" departSpeed="0.00" departDelay="0.00" arrival="262.00" arrivalLane="3o_0" arrivalPos="492.80" arrivalSpeed="10.04" duration="91.00" routeLength="990.53" waitingTime="0.00" waitingCount="0" stopTime="0.00" timeLoss="12.64" rerouteNo="0" devices="tripinfo_WE_171" vType="car" speedFactor="0.91" vaporized=""/>
    <tripinfo id="NS_182" depart="182.00" departLane="2i_0" departPos="4.10" departSpeed="0.00" departDelay="0.00" arrival="263.00" arrivalLane="1o_0" arrivalPos="492.80" arrivalSpeed="10.60" duration="81.00" routeLength="995.90" waitingTime="0.00" waitingCount="0" stopTime="0.00" timeLoss="11.27" rerouteNo="0" devices="tripinfo_NS_182" vType="car" speedFactor="1.02" vaporized=""/>
    <tripinfo id="WE_176" depart="176.00" departLane="1i_0" departPos="4.10" departSpeed="0.00" departDelay="0.00" arrival="264.00" arrivalLane="3o_0" arrivalPos="492.80" arrivalSpeed="9.26" duration="88.00" routeLength="990.53" waitingTime="0.00" waitingCount="0" stopTime="0.00" timeLoss="10.66" rerouteNo="0" devices="tripinfo_WE_176" vType="car" speedFactor="0.91" vaporized=""/>
    <tripinfo id="EW_180" depart="180.00" departLane="4i_0" departPos="4.10" departSpeed="0.00" departDelay="0.00" arrival="266.00" arrivalLane="3o_0" arrivalPos="492.80" arrivalSpeed="10.34" duration="86.00" routeLength="995.90" waitingTime="0.00" waitingCount="0" stopTime="0.00" timeLoss="17.30" rerouteNo="0" devices="tripinfo_EW_180" vType="car" speedFactor="1.04" vaporized=""/>
    <tripinfo id="EW_189" depart="189.00" departLane="4i_0" departPos="4.10" departSpeed="0.00" departDelay="0.00" arrival="270.00" arrivalLane="2o_0" arrivalPos="492.80" arrivalSpeed="10.90" duration="81.00" routeLength="995.70" waitingTime="0.00" waitingCount="0" stopTime="0.00" timeLoss="11.50" rerouteNo="0" devices="tripinfo_EW_189" vType="car" speedFactor="1.02" vaporized=""/>
    <tripinfo id="SN_195" depart="195.00" departLane="3i_0" departPos="4.10" departSpeed="0.00" departDelay="0.00" arrival="275.00" arrivalLane="2o_0" arrivalPos="492.80" arrivalSpeed="10.91" duration="80.00" routeLength="990.53" waitingTime="0.00" waitingCount="0" stopTime="0.00" timeLoss="8.57" rerouteNo="0" devices="tripinfo_SN_195" vType="car" speedFactor="0.98" vaporized=""/>
    <tripinfo id="WE_190" depart="190.00" departLane="1i_0" departPos="4.10" departSpeed="0.00" departDelay="0.00" arrival="276.00" arrivalLane="4o_0" arrivalPos="492.80" arrivalSpeed="10.40" duration="86.00" routeLength="995.70" waitingTime="0.00" waitingCount="0" stopTime="0.00" timeLoss="13.27" rerouteNo="0" devices="tripinfo_WE_190" vType="car" speedFactor="0.97" vaporized=""/>
    <tripinfo id="EW_191" depart="192.00" departLane="4i_0" departPos="4.10" departSpeed="0.00" departDelay="1.00" arrival="277.00" arrivalLane="1o_0" arrivalPos="492.80" arrivalSpeed="9.19" duration="85.00" routeLength="990.53" waitingTime="0.00" waitingCount="0" stopTime="0.00" timeLoss="9.40" rerouteNo="0" devices="tripinfo_EW_191" vType="car" speedFactor="0.94" vaporized=""/>
    <tripinfo id="NS_196" depart="200.00" departLane="2i_0" departPos="4.10" departSpeed="0.00" departDelay="4.00" arrival="278.00" arrivalLane="4o_0" arrivalPos="492.80" arrivalSpeed="11.32" duration="78.00" routeLength="990.53" waitingTime="0.00" waitingCount="0" stopTime="0.00" timeLoss="9.37" rerouteNo="0" devices="tripinfo_NS_196" vType="car" speedFactor="1.03" vaporized=""/>
    <tripinfo id="WE_192" depart="193.00" departLane="1i_0" departPos="4.10" departSpeed="0.00" departDelay="1.00" arrival="280.00" arrivalLane="4o_0" arrivalPos="492.80" arrivalSpeed="11.67" duration="87.00" routeLength="995.70" waitingTime="0.00" waitingCount="0" stopTime="0.00" timeLoss="19.52" rerouteNo="0" devices="tripinfo_WE_192" vType="car" speedFactor="1.06" vaporized=""/>