<?xml version="1.0" encoding="UTF-8"?>

<!-- generated on 2024-05-05 15:50:14 by Eclipse SUMO sumo Version 1.19.0
<configuration xmlns:xsi="http://www.w3.org/2001/XMLSchema-instance" xsi:noNamespaceSchemaLocation="http://sumo.dlr.de/xsd/sumoConfiguration.xsd">

    <input>
        <net-file value="twoone.net.xml"/>
        <route-files value="route_gen.rou.xml"/>
    </input>

    <output>
        <tripinfo-output value="tripinfo_epi41.xml"/>
    </output>

    <report>
        <no-warnings value="true"/>
    </report>

    <traci_server>
        <remote-port value="42733"/>
    </traci_server>

</configuration>
-->

<tripinfos xmlns:xsi="http://www.w3.org/2001/XMLSchema-instance" xsi:noNamespaceSchemaLocation="http://sumo.dlr.de/xsd/tripinfo_file.xsd">
    <tripinfo id="SN_4" depart="4.00" departLane="3i_0" departPos="4.10" departSpeed="0.00" departDelay="0.00" arrival="80.00" arrivalLane="2o_0" arrivalPos="492.80" arrivalSpeed="10.82" duration="76.00" routeLength="990.53" waitingTime="2.00" waitingCount="1" stopTime="0.00" timeLoss="10.95" rerouteNo="0" devices="tripinfo_SN_4" vType="car" speedFactor="1.08" vaporized=""/>
    <tripinfo id="WE_2" depart="2.00" departLane="1i_0" departPos="10.10" departSpeed="0.00" departDelay="0.00" arrival="87.00" arrivalLane="2o_0" arrivalPos="492.80" arrivalSpeed="11.07" duration="85.00" routeLength="989.90" waitingTime="0.00" waitingCount="0" stopTime="0.00" timeLoss="16.01" rerouteNo="0" devices="tripinfo_WE_2" vType="truck" speedFactor="1.03" vaporized=""/>
    <tripinfo id="WE_5" depart="6.00" departLane="1i_0" departPos="4.10" departSpeed="0.00" departDelay="1.00" arrival="89.00" arrivalLane="3o_0" arrivalPos="492.80" arrivalSpeed="11.24" duration="83.00" routeLength="990.53" waitingTime="0.00" waitingCount="0" stopTime="0.00" timeLoss="14.69" rerouteNo="0" devices="tripinfo_WE_5" vType="car" speedFactor="1.03" vaporized=""/>
    <tripinfo id="NS_4" depart="4.00" departLane="2i_0" departPos="4.10" departSpeed="0.00" departDelay="0.00" arrival="93.00" arrivalLane="3o_0" arrivalPos="492.80" arrivalSpeed="10.82" duration="89.00" routeLength="995.70" waitingTime="3.00" waitingCount="1" stopTime="0.00" timeLoss="18.65" rerouteNo="0" devices="tripinfo_NS_4" vType="car" speedFactor="1.01" vaporized=""/>
    <tripinfo id="WE_19" depart="19.00" departLane="1i_0" departPos="4.10" departSpeed="0.00" departDelay="0.00" arrival="94.00" arrivalLane="4o_0" arrivalPos="492.80" arrivalSpeed="11.62" duration="75.00" routeLength="995.70" waitingTime="0.00" waitingCount="0" stopTime="0.00" timeLoss="9.77" rerouteNo="0" devices="tripinfo_WE_19" vType="car" speedFactor="1.09" vaporized=""/>
    <tripinfo id="NS_6" depart="7.00" departLane="2i_0" departPos="10.10" departSpeed="0.00" departDelay="1.00" arrival="96.00" arrivalLane="3o_0" arrivalPos="492.80" arrivalSpeed="11.35" duration="89.00" routeLength="989.70" waitingTime="0.00" waitingCount="0" stopTime="0.00" timeLoss="19.43" rerouteNo="0" devices="tripinfo_NS_6" vType="truck" speedFactor="1.02" vaporized=""/>
    <tripinfo id="EW_4" depart="4.00" departLane="4i_0" departPos="4.10" departSpeed="0.00" departDelay="0.00" arrival="104.00" arrivalLane="3o_0" arrivalPos="492.80" arrivalSpeed="10.19" duration="100.00" routeLength="995.90" waitingTime="13.00" waitingCount="1" stopTime="0.00" timeLoss="24.44" rerouteNo="0" devices="tripinfo_EW_4" vType="car" speedFactor="0.94" vaporized=""/>
    <tripinfo id="NS_13" depart="13.00" departLane="2i_0" departPos="4.10" departSpeed="0.00" departDelay="0.00" arrival="111.00" arrivalLane="3o_0" arrivalPos="492.80" arrivalSpeed="8.91" duration="98.00" routeLength="995.70" waitingTime="2.00" waitingCount="2" stopTime="0.00" timeLoss="17.90" rerouteNo="0" devices="tripinfo_NS_13" vType="car" speedFactor="0.89" vaporized=""/>
    <tripinfo id="EW_15" depart="15.00" departLane="4i_0" departPos="4.10" departSpeed="0.00" departDelay="0.00" arrival="113.00" arrivalLane="3o_0" arrivalPos="492.80" arrivalSpeed="9.19" duration="98.00" routeLength="995.90" waitingTime="4.00" waitingCount="2" stopTime="0.00" timeLoss="22.13" rerouteNo="0" devices="tripinfo_EW_15" vType="car" speedFactor="0.94" vaporized=""/>
    <tripinfo id="SN_5" depart="6.00" departLane="3i_0" departPos="4.10" departSpeed="0.00" departDelay="1.00" arrival="115.00" arrivalLane="1o_0" arrivalPos="492.80" arrivalSpeed="9.12" duration="109.00" routeLength="995.70" waitingTime="8.00" waitingCount="1" stopTime="0.00" timeLoss="23.64" rerouteNo="0" devices="tripinfo_SN_5" vType="car" speedFactor="0.83" vaporized=""/>
    <tripinfo id="WE_40" depart="40.00" departLane="1i_0" departPos="4.10" departSpeed="0.00" departDelay="0.00" arrival="115.00" arrivalLane="4o_0" arrivalPos="492.80" arrivalSpeed="11.90" duration="75.00" routeLength="995.70" waitingTime="0.00" waitingCount="0" stopTime="0.00" timeLoss="11.90" rerouteNo="0" devices="tripinfo_WE_40" vType="car" speedFactor="1.12" vaporized=""/>
    <tripinfo id="SN_20" depart="20.00" departLane="3i_0" departPos="4.10" departSpeed="0.00" departDelay="0.00" arrival="117.00" arrivalLane="1o_0" arrivalPos="492.80" arrivalSpeed="10.42" duration="97.00" routeLength="995.70" waitingTime="9.00" waitingCount="2" stopTime="0.00" timeLoss="27.55" rerouteNo="0" devices="tripinfo_SN_20" vType="car" speedFactor="1.03" vaporized=""/>
    <tripinfo id="NS_18" depart="18.00" departLane="2i_0" departPos="4.10" departSpeed="0.00" departDelay="0.00" arrival="119.00" arrivalLane="3o_0" arrivalPos="492.80" arrivalSpeed="8.79" duration="101.00" routeLength="995.70" waitingTime="1.00" waitingCount="1" stopTime="0.00" timeLoss="18.05" rerouteNo="0" devices="tripinfo_NS_18" vType="car" speedFactor="0.86" vaporized=""/>
    <tripinfo id="NS_35" depart="35.00" departLane="2i_0" departPos="10.10" departSpeed="0.00" departDelay="0.00" arrival="124.00" arrivalLane="1o_0" arrivalPos="492.80" arrivalSpeed="10.91" duration="89.00" routeLength="989.90" waitingTime="1.00" waitingCount="1" stopTime="0.00" timeLoss="19.70" rerouteNo="0" devices="tripinfo_NS_35" vType="truck" speedFactor="1.02" vaporized=""/>
    <tripinfo id="EW_46" depart="46.00" departLane="4i_0" departPos="4.10" departSpeed="0.00" departDelay="0.00" arrival="130.00" arrivalLane="2o_0" arrivalPos="492.80" arrivalSpeed="10.27" duration="84.00" routeLength="995.70" waitingTime="0.00" waitingCount="0" stopTime="0.00" timeLoss="12.02" rerouteNo="0" devices="tripinfo_EW_46" vType="car" speedFactor="0.99" vaporized=""/>
    <tripinfo id="SN_47" depart="47.00" departLane="3i_0" departPos="4.10" departSpeed="0.00" departDelay="0.00" arrival="136.00" arrivalLane="2o_0" arrivalPos="492.80" arrivalSpeed="9.61" duration="89.00" routeLength="990.53" waitingTime="0.00" waitingCount="0" stopTime="0.00" timeLoss="12.61" rerouteNo="0" devices="tripinfo_SN_47" vType="car" speedFactor="0.93" vaporized=""/>
    <tripinfo id="NS_49" depart="49.00" departLane="2i_0" departPos="4.10" departSpeed="0.00" departDelay="0.00" arrival="140.00" arrivalLane="1o_0" arrivalPos="492.80" arrivalSpeed="9.29" duration="91.00" routeLength="995.90" waitingTime="0.00" waitingCount="0" stopTime="0.00" timeLoss="10.33" rerouteNo="0" devices="tripinfo_NS_49" vType="car" speedFactor="0.88" vaporized=""/>
    <tripinfo id="SN_52" depart="52.00" departLane="3i_0" departPos="4.10" departSpeed="0.00" departDelay="0.00" arrival="142.00" arrivalLane="4o_0" arrivalPos="492.80" arrivalSpeed="10.26" duration="90.00" routeLength="995.90" waitingTime="0.00" waitingCount="0" stopTime="0.00" timeLoss="14.87" rerouteNo="0" devices="tripinfo_SN_52" vType="car" speedFactor="0.94" vaporized=""/>
    <tripinfo id="NS_59" depart="59.00" departLane="2i_0" departPos="4.10" departSpeed="0.00" departDelay="0.00" arrival="142.00" arrivalLane="1o_0" arrivalPos="492.80" arrivalSpeed="10.79" duration="83.00" routeLength="995.90" waitingTime="2.00" waitingCount="1" stopTime="0.00" timeLoss="13.32" rerouteNo="0" devices="tripinfo_NS_59" vType="car" speedFactor="1.02" vaporized=""/>
    <tripinfo id="NS_63" depart="63.00" departLane="2i_0" departPos="4.10" departSpeed="0.00" departDelay="0.00" arrival="144.00" arrivalLane="4o_0" arrivalPos="492.80" arrivalSpeed="11.06" duration="81.00" routeLength="990.53" waitingTime="0.00" waitingCount="0" stopTime="0.00" timeLoss="10.93" rerouteNo="0" devices="tripinfo_NS_63" vType="car" speedFactor="1.01" vaporized=""/>
    <tripinfo id="WE_56" depart="56.00" departLane="1i_0" departPos="4.10" departSpeed="0.00" departDelay="0.00" arrival="151.00" arrivalLane="4o_0" arrivalPos="492.80" arrivalSpeed="10.30" duration="95.00" routeLength="995.70" waitingTime="5.00" waitingCount="1" stopTime="0.00" timeLoss="19.61" rerouteNo="0" devices="tripinfo_WE_56" vType="car" speedFactor="0.94" vaporized=""/>
    <tripinfo id="SN_58" depart="58.00" departLane="3i_0" departPos="4.10" departSpeed="0.00" departDelay="0.00" arrival="153.00" arrivalLane="4o_0" arrivalPos="492.80" arrivalSpeed="12.44" duration="95.00" routeLength="995.90" waitingTime="8.00" waitingCount="4" stopTime="0.00" timeLoss="33.64" rerouteNo="0" devices="tripinfo_SN_58" vType="car" speedFactor="1.16" vaporized=""/>
    <tripinfo id="WE_72" depart="72.00" departLane="1i_0" departPos="4.10" departSpeed="0.00" departDelay="0.00" arrival="154.00" arrivalLane="2o_0" arrivalPos="492.80" arrivalSpeed="10.06" duration="82.00" routeLength="995.90" waitingTime="0.00" waitingCount="0" stopTime="0.00" timeLoss="9.60" rerouteNo="0" devices="tripinfo_WE_72" vType="car" speedFactor="0.97" vaporized=""/>
    <tripinfo id="WE_73" depart="75.00" departLane="1i_0" departPos="4.10" departSpeed="0.00" departDelay="2.00" arrival="164.00" arrivalLane="2o_0" arrivalPos="492.80" arrivalSpeed="9.59" duration="89.00" routeLength="995.90" waitingTime="0.00" waitingCount="0" stopTime="0.00" timeLoss="8.98" rerouteNo="0" devices="tripinfo_WE_73" vType="car" speedFactor="0.89" vaporized=""/>
    <tripinfo id="WE_81" depart="81.00" departLane="1i_0" departPos="4.10" departSpeed="0.00" departDelay="0.00" arrival="165.00" arrivalLane="3o_0" arrivalPos="492.80" arrivalSpeed="10.13" duration="84.00" routeLength="990.53" waitingTime="0.00" waitingCount="0" stopTime="0.00" timeLoss="9.71" rerouteNo="0" devices="tripinfo_WE_81" vType="car" speedFactor="0.95" vaporized=""/>
    <tripinfo id="SN_76" depart="76.00" departLane="3i_0" departPos="4.10" departSpeed="0.00" departDelay="0.00" arrival="167.00" arrivalLane="4o_0" arrivalPos="492.80" arrivalSpeed="9.45" duration="91.00" routeLength="995.90" waitingTime="0.00" waitingCount="0" stopTime="0.00" timeLoss="9.37" rerouteNo="0" devices="tripinfo_SN_76" vType="car" speedFactor="0.87" vaporized=""/>
    <tripinfo id="WE_77" depart="78.00" departLane="1i_0" departPos="4.10" departSpeed="0.00" departDelay="1.00" arrival="169.00" arrivalLane="4o_0" arrivalPos="492.80" arrivalSpeed="9.00" duration="91.00" routeLength="995.70" waitingTime="0.00" waitingCount="0" stopTime="0.00" timeLoss="13.35" rerouteNo="0" devices="tripinfo_WE_77" vType="car" speedFactor="0.92" vaporized=""/>
    <tripinfo id="SN_83" depart="83.00" departLane="3i_0" departPos="4.10" departSpeed="0.00" departDelay="0.00" arrival="171.00" arrivalLane="4o_0" arrivalPos="492.80" arrivalSpeed="11.76" duration="88.00" routeLength="995.90" waitingTime="4.00" waitingCount="2" stopTime="0.00" timeLoss="24.85" rerouteNo="0" devices="tripinfo_SN_83" vType="car" speedFactor="1.13" vaporized=""/>
    <tripinfo id="SN_89" depart="89.00" departLane="3i_0" departPos="4.10" departSpeed="0.00" departDelay="0.00" arrival="172.00" arrivalLane="4o_0" arrivalPos="492.80" arrivalSpeed="10.44" duration="83.00" routeLength="995.90" waitingTime="0.00" waitingCount="0" stopTime="0.00" timeLoss="12.69" rerouteNo="0" devices="tripinfo_SN_89" vType="car" speedFactor="1.01" vaporized=""/>
    <tripinfo id="EW_93" depart="94.00" departLane="4i_0" departPos="4.10" departSpeed="0.00" departDelay="1.00" arrival="174.00" arrivalLane="1o_0" arrivalPos="492.80" arrivalSpeed="12.70" duration="80.00" routeLength="990.53" waitingTime="1.00" waitingCount="1" stopTime="0.00" timeLoss="19.61" rerouteNo="0" devices="tripinfo_EW_93" vType="car" speedFactor="1.17" vaporized=""/>
    <tripinfo id="NS_93" depart="93.00" departLane="2i_0" departPos="4.10" departSpeed="0.00" departDelay="0.00" arrival="175.00" arrivalLane="4o_0" arrivalPos="492.80" arrivalSpeed="10.07" duration="82.00" routeLength="990.53" waitingTime="0.00" waitingCount="0" stopTime="0.00" timeLoss="10.95" rerouteNo="0" devices="tripinfo_NS_93" vType="car" speedFactor="0.99" vaporized=""/>
    <tripinfo id="NS_76" depart="76.00" departLane="2i_0" departPos="4.10" departSpeed="0.00" departDelay="0.00" arrival="178.00" arrivalLane="3o_0" arrivalPos="492.80" arrivalSpeed="8.77" duration="102.00" routeLength="995.70" waitingTime="2.00" waitingCount="2" stopTime="0.00" timeLoss="16.29" rerouteNo="0" devices="tripinfo_NS_76" vType="car" speedFactor="0.83" vaporized=""/>
    <tripinfo id="EW_84" depart="84.00" departLane="4i_0" departPos="4.10" departSpeed="0.00" departDelay="0.00" arrival="179.00" arrivalLane="2o_0" arrivalPos="492.80" arrivalSpeed="9.05" duration="95.00" routeLength="995.70" waitingTime="5.00" waitingCount="1" stopTime="0.00" timeLoss="18.80" rerouteNo="0" devices="tripinfo_EW_84" vType="car" speedFactor="0.93" vaporized=""/>
    <tripinfo id="WE_89" depart="89.00" departLane="1i_0" departPos="4.10" departSpeed="0.00" departDelay="0.00" arrival="181.00" arrivalLane="2o_0" arrivalPos="492.80" arrivalSpeed="12.64" duration="92.00" routeLength="995.90" waitingTime="7.00" waitingCount="1" stopTime="0.00" timeLoss="29.97" rerouteNo="0" devices="tripinfo_WE_89" vType="car" speedFactor="1.15" vaporized=""/>
    <tripinfo id="EW_109" depart="109.00" departLane="4i_0" departPos="4.10" departSpeed="0.00" departDelay="0.00" arrival="181.00" arrivalLane="1o_0" arrivalPos="492.80" arrivalSpeed="12.15" duration="72.00" routeLength="990.53" waitingTime="0.00" waitingCount="0" stopTime="0.00" timeLoss="7.21" rerouteNo="0" devices="tripinfo_EW_109" vType="car" speedFactor="1.10" vaporized=""/>
    <tripinfo id="EW_85" depart="86.00" departLane="4i_0" departPos="4.10" departSpeed="0.00" departDelay="1.00" arrival="182.00" arrivalLane="2o_0" arrivalPos="492.80" arrivalSpeed="12.07" duration="96.00" routeLength="995.70" waitingTime="5.00" waitingCount="2" stopTime="0.00" timeLoss="36.00" rerouteNo="0" devices="tripinfo_EW_85" vType="car" speedFactor="1.18" vaporized=""/>
    <tripinfo id="SN_95" depart="96.00" departLane="3i_0" departPos="4.10" departSpeed="0.00" departDelay="1.00" arrival="188.00" arrivalLane="1o_0" arrivalPos="492.80" arrivalSpeed="11.24" duration="92.00" routeLength="995.70" waitingTime="8.00" waitingCount="2" stopTime="0.00" timeLoss="21.91" rerouteNo="0" devices="tripinfo_SN_95" vType="car" speedFactor="1.02" vaporized=""/>
    <tripinfo id="SN_107" depart="107.00" departLane="3i_0" departPos="4.10" departSpeed="0.00" departDelay="0.00" arrival="192.00" arrivalLane="1o_0" arrivalPos="492.80" arrivalSpeed="12.45" duration="85.00" routeLength="995.70" waitingTime="7.00" waitingCount="3" stopTime="0.00" timeLoss="24.28" rerouteNo="0" devices="tripinfo_SN_107" vType="car" speedFactor="1.18" vaporized=""/>
    <tripinfo id="NS_102" depart="102.00" departLane="2i_0" departPos="4.10" departSpeed="0.00" departDelay="0.00" arrival="194.00" arrivalLane="3o_0" arrivalPos="492.80" arrivalSpeed="9.99" duration="92.00" routeLength="995.70" waitingTime="4.00" waitingCount="1" stopTime="0.00" timeLoss="19.21" rerouteNo="0" devices="tripinfo_NS_102" vType="car" speedFactor="0.97" vaporized=""/>
    <tripinfo id="WE_113" depart="113.00" departLane="1i_0" departPos="4.10" departSpeed="0.00" departDelay="0.00" arrival="197.00" arrivalLane="3o_0" arrivalPos="492.80" arrivalSpeed="10.80" duration="84.00" routeLength="990.53" waitingTime="6.00" waitingCount="1" stopTime="0.00" timeLoss="15.20" rerouteNo="0" devices="tripinfo_WE_113" vType="car" speedFactor="1.03" vaporized=""/>
    <tripinfo id="SN_109" depart="109.00" departLane="3i_0" departPos="4.10" departSpeed="0.00" departDelay="0.00" arrival="207.00" arrivalLane="4o_0" arrivalPos="492.80" arrivalSpeed="9.94" duration="98.00" routeLength="995.90" waitingTime="3.00" waitingCount="1" stopTime="0.00" timeLoss="18.97" rerouteNo="0" devices="tripinfo_SN_109" vType="car" speedFactor="0.90" vaporized=""/>
    <tripinfo id="SN_113" depart="113.00" departLane="3i_0" departPos="4.10" departSpeed="0.00" departDelay="0.00" arrival="208.00" arrivalLane="4o_0" arrivalPos="492.80" arrivalSpeed="11.47" duration="95.00" routeLength="995.90" waitingTime="2.00" waitingCount="1" stopTime="0.00" timeLoss="30.39" rerouteNo="0" devices="tripinfo_SN_113" vType="car" speedFactor="1.09" vaporized=""/>
    <tripinfo id="NS_113" depart="113.00" departLane="2i_0" departPos="4.10" departSpeed="0.00" departDelay="0.00" arrival="209.00" arrivalLane="3o_0" arrivalPos="492.80" arrivalSpeed="10.51" duration="96.00" routeLength="995.70" waitingTime="7.00" waitingCount="2" stopTime="0.00" timeLoss="21.85" rerouteNo="0" devices="tripinfo_NS_113" vType="car" speedFactor="0.96" vaporized=""/>
    <tripinfo id="EW_119" depart="119.00" departLane="4i_0" departPos="10.10" departSpeed="0.00" departDelay="0.00" arrival="215.00" arrivalLane="2o_0" arrivalPos="492.80" arrivalSpeed="10.90" duration="96.00" routeLength="989.70" waitingTime="2.00" waitingCount="1" stopTime="0.00" timeLoss="24.97" rerouteNo="0" devices="tripinfo_EW_119" vType="truck" speedFactor="1.00" vaporized=""/>
    <tripinfo id="NS_116" depart="118.00" departLane="2i_0" departPos="4.10" departSpeed="0.00" departDelay="2.00" arrival="218.00" arrivalLane="3o_0" arrivalPos="492.80" arrivalSpeed="10.32" duration="100.00" routeLength="995.70" waitingTime="9.00" waitingCount="4" stopTime="0.00" timeLoss="32.21" rerouteNo="0" devices="tripinfo_NS_116" vType="car" speedFactor="1.04" vaporized=""/>
    <tripinfo id="SN_122" depart="122.00" departLane="3i_0" departPos="4.10" departSpeed="0.00" departDelay="0.00" arrival="219.00" arrivalLane="1o_0" arrivalPos="492.80" arrivalSpeed="9.34" duration="97.00" routeLength="995.70" waitingTime="3.00" waitingCount="1" stopTime="0.00" timeLoss="16.04" rerouteNo="0" devices="tripinfo_SN_122" vType="car" speedFactor="0.88" vaporized=""/>
    <tripinfo id="NS_115" depart="116.00" departLane="2i_0" departPos="4.10" departSpeed="0.00" departDelay="1.00" arrival="221.00" arrivalLane="1o_0" arrivalPos="492.80" arrivalSpeed="10.43" duration="105.00" routeLength="995.90" waitingTime="11.00" waitingCount="4" stopTime="0.00" timeLoss="36.32" rerouteNo="0" devices="tripinfo_NS_115" vType="car" speedFactor="1.04" vaporized=""/>
    <tripinfo id="EW_134" depart="134.00" departLane="4i_0" departPos="4.10" departSpeed="0.00" departDelay="0.00" arrival="223.00" arrivalLane="1o_0" arrivalPos="492.80" arrivalSpeed="11.10" duration="89.00" routeLength="990.53" waitingTime="3.00" waitingCount="2" stopTime="0.00" timeLoss="19.11" rerouteNo="0" devices="tripinfo_EW_134" vType="car" speedFactor="1.02" vaporized=""/>
    <tripinfo id="SN_131" depart="131.00" departLane="3i_0" departPos="10.10" departSpeed="0.00" departDelay="0.00" arrival="228.00" arrivalLane="4o_0" arrivalPos="492.80" arrivalSpeed="9.73" duration="97.00" routeLength="989.90" waitingTime="1.00" waitingCount="1" stopTime="0.00" timeLoss="21.32" rerouteNo="0" devices="tripinfo_SN_131" vType="truck" speedFactor="0.93" vaporized=""/>
    <tripinfo id="EW_146" depart="146.00" departLane="4i_0" departPos="10.10" departSpeed="0.00" departDelay="0.00" arrival="229.00" arrivalLane="1o_0" arrivalPos="492.80" arrivalSpeed="11.61" duration="83.00" routeLength="984.53" waitingTime="0.00" waitingCount="0" stopTime="0.00" timeLoss="15.65" rerouteNo="0" devices="tripinfo_EW_146" vType="truck" speedFactor="1.05" vaporized=""/>
    <tripinfo id="NS_117" depart="122.00" departLane="2i_0" departPos="10.10" departSpeed="0.00" departDelay="5.00" arrival="230.00" arrivalLane="3o_0" arrivalPos="492.80" arrivalSpeed="11.03" duration="108.00" routeLength="989.70" waitingTime="5.00" waitingCount="2" stopTime="0.00" timeLoss="39.77" rerouteNo="0" devices="tripinfo_NS_117" vType="truck" speedFactor="1.04" vaporized=""/>
    <tripinfo id="SN_149" depart="149.00" departLane="3i_0" departPos="4.10" departSpeed="0.00" departDelay="0.00" arrival="237.00" arrivalLane="2o_0" arrivalPos="492.80" arrivalSpeed="9.16" duration="88.00" routeLength="990.53" waitingTime="0.00" waitingCount="0" stopTime="0.00" timeLoss="9.79" rerouteNo="0" devices="tripinfo_SN_149" vType="car" speedFactor="0.90" vaporized=""/>
    <tripinfo id="EW_147" depart="151.00" departLane="4i_0" departPos="4.10" departSpeed="0.00" departDelay="4.00" arrival="241.00" arrivalLane="3o_0" arrivalPos="492.80" arrivalSpeed="10.55" duration="90.00" routeLength="995.90" waitingTime="1.00" waitingCount="1" stopTime="0.00" timeLoss="19.07" rerouteNo="0" devices="tripinfo_EW_147" vType="car" speedFactor="1.00" vaporized=""/>
    <tripinfo id="NS_119" depart="126.00" departLane="2i_0" departPos="4.10" departSpeed="0.00" departDelay="7.00" arrival="243.00" arrivalLane="1o_0" arrivalPos="492.80" arrivalSpeed="9.72" duration="117.00" routeLength="995.90" waitingTime="5.00" waitingCount="2" stopTime="0.00" timeLoss="37.93" rerouteNo="0" devices="tripinfo_NS_119" vType="car" speedFactor="0.90" vaporized=""/>
    <tripinfo id="NS_133" depart="136.00" departLane="2i_0" departPos="4.10" departSpeed="0.00" departDelay="3.00" arrival="244.00" arrivalLane="1o_0" arrivalPos="492.80" arrivalSpeed="11.86" duration="108.00" routeLength="995.90" waitingTime="1.00" waitingCount="1" stopTime="0.00" timeLoss="47.53" rerouteNo="0" devices="tripinfo_NS_133" vType="car" speedFactor="1.17" vaporized=""/>
    <tripinfo id="EW_148" depart="153.00" departLane="4i_0" departPos="4.10" departSpeed="0.00" departDelay="5.00" arrival="248.00" arrivalLane="3o_0" arrivalPos="492.80" arrivalSpeed="10.07" duration="95.00" routeLength="995.90" waitingTime="3.00" waitingCount="2" stopTime="0.00" timeLoss="23.45" rerouteNo="0" devices="tripinfo_EW_148" vType="car" speedFactor="1.00" vaporized=""/>
    <tripinfo id="NS_128" depart="130.00" departLane="2i_0" departPos="10.10" departSpeed="0.00" departDelay="2.00" arrival="249.00" arrivalLane="4o_0" arrivalPos="492.80" arrivalSpeed="10.25" duration="119.00" routeLength="984.53" waitingTime="1.00" waitingCount="1" stopTime="0.00" timeLoss="42.56" rerouteNo="0" devices="tripinfo_NS_128" vType="truck" speedFactor="0.93" vaporized=""/>
    <tripinfo id="NS_151" depart="151.00" departLane="2i_0" departPos="4.10" departSpeed="0.00" departDelay="0.00" arrival="249.00" arrivalLane="3o_0" arrivalPos="492.80" arrivalSpeed="11.62" duration="98.00" routeLength="995.70" waitingTime="0.00" waitingCount="0" stopTime="0.00" timeLoss="36.22" rerouteNo="0" devices="tripinfo_NS_151" vType="car" speedFactor="1.14" vaporized=""/>
    <tripinfo id="EW_161" depart="161.00" departLane="4i_0" departPos="4.10" departSpeed="0.00" departDelay="0.00" arrival="252.00" arrivalLane="3o_0" arrivalPos="492.80" arrivalSpeed="10.89" duration="91.00" routeLength="995.90" waitingTime="1.00" waitingCount="1" stopTime="0.00" timeLoss="25.64" rerouteNo="0" devices="tripinfo_EW_161" vType="car" speedFactor="1.08" vaporized=""/>
    <tripinfo id="WE_157" depart="157.00" departLane="1i_0" departPos="4.10" departSpeed="0.00" departDelay="0.00" arrival="253.00" arrivalLane="4o_0" arrivalPos="492.80" arrivalSpeed="10.86" duration="96.00" routeLength="995.70" waitingTime="12.00" waitingCount="1" stopTime="0.00" timeLoss="26.52" rerouteNo="0" devices="tripinfo_WE_157" vType="car" speedFactor="1.02" vaporized=""/>
    <tripinfo id="EW_158" depart="158.00" departLane="4i_0" departPos="4.10" departSpeed="0.00" departDelay="0.00" arrival="254.00" arrivalLane="1o_0" arrivalPos="492.80" arrivalSpeed="9.93" duration="96.00" routeLength="990.53" waitingTime="3.00" waitingCount="2" stopTime="0.00" timeLoss="23.19" rerouteNo="0" devices="tripinfo_EW_158" vType="car" speedFactor="0.97" vaporized=""/>
    <tripinfo id="EW_168" depart="169.00" departLane="4i_0" departPos="4.10" departSpeed="0.00" departDelay="1.00" arrival="254.00" arrivalLane="3o_0" arrivalPos="492.80" arrivalSpeed="11.56" duration="85.00" routeLength="995.90" waitingTime="0.00" waitingCount="0" stopTime="0.00" timeLoss="21.49" rerouteNo="0" devices="tripinfo_EW_168" vType="car" speedFactor="1.12" vaporized=""/>
    <tripinfo id="EW_170" depart="172.00" departLane="4i_0" departPos="4.10" departSpeed="0.00" departDelay="2.00" arrival="261.00" arrivalLane="2o_0" arrivalPos="492.80" arrivalSpeed="11.20" duration="89.00" routeLength="995.70" waitingTime="0.00" waitingCount="0" stopTime="0.00" timeLoss="19.26" rerouteNo="0" devices="tripinfo_EW_170" vType="car" speedFactor="1.02" vaporized=""/>
    <tripinfo id="SN_181" depart="181.00" departLane="3i_0" departPos="4.10" departSpeed="0.00" departDelay="0.00" arrival="265.00" arrivalLane="2o_0" arrivalPos="492.80" arrivalSpeed="9.84" duration="84.00" routeLength="990.53" waitingTime="2.00" waitingCount="1" stopTime="0.00" timeLoss="12.53" rerouteNo="0" devices="tripinfo_SN_181" vType="car" speedFactor="0.99" vaporized=""/>
    <tripinfo id="WE_187" depart="188.00" departLane="1i_0" departPos="4.10" departSpeed="0.00" departDelay="1.00" arrival="276.00" arrivalLane="4o_0" arrivalPos="492.80" arrivalSpeed="10.34" duration="88.00" routeLength="995.70" waitingTime="0.00" waitingCount="0" stopTime="0.00" timeLoss="12.55" rerouteNo="0" devices="tripinfo_WE_187" vType="car" speedFactor="0.94" vaporized=""/>
    <tripinfo id="EW_188" depart="188.00" departLane="4i_0" departPos="4.10" departSpeed="0.00" departDelay="0.00" arrival="282.00" arrivalLane="3o_0" arrivalPos="492.80" arrivalSpeed="8.63" duration="94.00" routeLength="995.90" waitingTime="2.00" waitingCount="2" stopTime="0.00" timeLoss="13.64" rerouteNo="0" devices="tripinfo_EW_188" vType="car" speedFactor="0.88" vaporized=""/>
    <tripinfo id="SN_195" depart="197.00" departLane="3i_0" departPos="4.10" departSpeed="0.00" departDelay="2.00" arrival="284.00" arrivalLane="2o_0" arrivalPos="492.80" arrivalSpeed="10.40" duration="87.00" routeLength="990.53" waitingTime="5.00" waitingCount="2" stopTime="0.00" timeLoss="18.78" rerouteNo="0" devices="tripinfo_SN_195" vType="car" speedFactor="1.04" vaporized=""/>
    <tripinfo id="NS_196" depart="196.00" departLane="2i_0" departPos="4.10" departSpeed="0.00" departDelay="0.00" arrival="285.00" arrivalLane="4o_0" arrivalPos="492.80" arrivalSpeed="10.35" duration="89.00" routeLength="990.53" waitingTime="2.00" waitingCount="1" stopTime="0.00" timeLoss="19.50" rerouteNo="0" devices="tripinfo_NS_196" vType="car" speedFactor="1.02" vaporized=""/>
    <tripinfo id="SN_189" depart="189.00" departLane="3i_0" departPos="4.10" departSpeed="0.00" departDelay="0.00" arrival="286.00" arrivalLane="1o_0" arrivalPos="492.80" arrivalSpeed="9.08" duration="97.00" routeLength="995.70" waitingTime="5.00" waitingCount="1" stopTime="0.00" timeLoss="19.08" rerouteNo="0" devices="tripinfo_SN_189" vType="car" speedFactor="0.91" vaporized=""/>
    <tripinfo id="NS_193" depart="193.00" departLane="2i_0" departPos="4.10" departSpeed="0.00" departDelay="0.00" arrival="289.00" arrivalLane="1o_0" arrivalPos="492.80" arrivalSpeed="9.50" duration="96.00" routeLength="995.90" waitingTime="4.00" waitingCount="1" stopTime="0.00" timeLoss="18.25" rerouteNo="0" devices="tripinfo_NS_193" vType="car" speedFactor="0.91" vaporized=""/>
    <tripinfo id="EW_202" depart="202.00" departLane="4i_0" departPos="4.10" departSpeed="0.00" departDelay="0.00" arrival="290.00" arrivalLane="3o_0" arrivalPos="492.80" arrivalSpeed="9.36" duration="88.00" routeLength="995.90" waitingTime="0.00" waitingCount="0" stopTime="0.00" timeLoss="12.69" rerouteNo="0" devices="tripinfo_EW_202" vType="car" speedFactor="0.94" vaporized=""/>
    <tripinfo id="NS_204" depart="204.00" departLane="2i_0" departPos="4.10" departSpeed="0.00" departDelay="0.00" arrival="290.00" arrivalLane="1o_0" arrivalPos="492.80" arrivalSpeed="11.38" duration="86.00" routeLength="995.90" waitingTime="0.00" waitingCount="0" stopTime="0.00" timeLoss="18.99" rerouteNo="0" devices="tripinfo_NS_204" vType="car" speedFactor="1.06" vaporized=""/>
    <tripinfo id="SN_198" depart="199.00" departLane="3i_0" departPos="4.10" departSpeed="0.00" departDelay="1.00" arrival="292.00" arrivalLane="1o_0" arrivalPos="492.80" arrivalSpeed="10.57" duration="93.00" routeLength="995.70" waitingTime="0.00" waitingCount="0" stopTime="0.00" timeLoss="23.87" rerouteNo="0" devices="tripinfo_SN_198" vType="car" speedFactor="1.02" vaporized=""/>
    <tripinfo id="EW_209" depart="209.00" departLane="4i_0" departPos="4.10" departSpeed="0.00" departDelay="0.00" arrival="295.00" arrivalLane="1o_0" arrivalPos="492.80" arrivalSpeed="10.42" duration="86.00" routeLength="990.53" waitingTime="0.00" waitingCount="0" stopTime="0.00" timeLoss="12.44" rerouteNo="0" devices="tripinfo_EW_209" vType="car" speedFactor="0.96" vaporized=""/>
    <tripinfo id="WE_200" depart="200.00" departLane="1i_0" departPos="4.10" departSpeed="0.00" departDelay="0.00" arrival="298.00" arrivalLane="4o_0" arrivalPos="492.80" arrivalSpeed="10.27" duration="98.00" routeLength="995.70" waitingTime="10.00" waitingCount="1" stopTime="0.00" timeLoss="24.65" rerouteNo="0" devices="tripinfo_WE_200" vType="car" speedFactor="0.97" vaporized=""/>
    <tripinfo id="WE_210" depart="210.00" departLane="1i_0" departPos="4.10" departSpeed="0.00" departDelay="0.00" arrival="299.00" arrivalLane="2o_0" arrivalPos="492.80" arrivalSpeed="10.24" duration="89.00" routeLength="995.90" waitingTime="3.00" waitingCount="1" stopTime="0.00" timeLoss="17.00" rerouteNo="0" devices="tripinfo_WE_210" vType="car" speedFactor="0.98" vaporized=""/>