<?xml version="1.0" encoding="UTF-8"?>

<!-- generated on 2024-05-05 15:47:51 by Eclipse SUMO sumo Version 1.19.0
<configuration xmlns:xsi="http://www.w3.org/2001/XMLSchema-instance" xsi:noNamespaceSchemaLocation="http://sumo.dlr.de/xsd/sumoConfiguration.xsd">

    <input>
        <net-file value="twoone.net.xml"/>
        <route-files value="route_gen.rou.xml"/>
    </input>

    <output>
        <tripinfo-output value="tripinfo_epi33.xml"/>
    </output>

    <report>
        <no-warnings value="true"/>
    </report>

    <traci_server>
        <remote-port value="38717"/>
    </traci_server>

</configuration>
-->

<tripinfos xmlns:xsi="http://www.w3.org/2001/XMLSchema-instance" xsi:noNamespaceSchemaLocation="http://sumo.dlr.de/xsd/tripinfo_file.xsd">
    <tripinfo id="EW_2" depart="2.00" departLane="4i_0" departPos="4.10" departSpeed="0.00" departDelay="0.00" arrival="77.00" arrivalLane="3o_0" arrivalPos="492.80" arrivalSpeed="11.43" duration="75.00" routeLength="995.90" waitingTime="0.00" waitingCount="0" stopTime="0.00" timeLoss="7.78" rerouteNo="0" devices="tripinfo_EW_2" vType="car" speedFactor="1.06" vaporized=""/>
    <tripinfo id="EW_4" depart="5.00" departLane="4i_0" departPos="4.10" departSpeed="0.00" departDelay="1.00" arrival="84.00" arrivalLane="3o_0" arrivalPos="492.80" arrivalSpeed="10.51" duration="79.00" routeLength="995.90" waitingTime="0.00" waitingCount="0" stopTime="0.00" timeLoss="8.35" rerouteNo="0" devices="tripinfo_EW_4" vType="car" speedFactor="1.01" vaporized=""/>
    <tripinfo id="NS_10" depart="10.00" departLane="2i_0" departPos="4.10" departSpeed="0.00" departDelay="0.00" arrival="86.00" arrivalLane="3o_0" arrivalPos="492.80" arrivalSpeed="11.63" duration="76.00" routeLength="995.70" waitingTime="0.00" waitingCount="0" stopTime="0.00" timeLoss="10.63" rerouteNo="0" devices="tripinfo_NS_10" vType="car" speedFactor="1.08" vaporized=""/>
    <tripinfo id="EW_18" depart="18.00" departLane="4i_0" departPos="4.10" departSpeed="0.00" departDelay="0.00" arrival="99.00" arrivalLane="3o_0" arrivalPos="492.80" arrivalSpeed="11.23" duration="81.00" routeLength="995.90" waitingTime="1.00" waitingCount="1" stopTime="0.00" timeLoss="11.93" rerouteNo="0" devices="tripinfo_EW_18" vType="car" speedFactor="1.03" vaporized=""/>
    <tripinfo id="WE_3" depart="3.00" departLane="1i_0" departPos="4.10" departSpeed="0.00" departDelay="0.00" arrival="101.00" arrivalLane="4o_0" arrivalPos="492.80" arrivalSpeed="10.30" duration="98.00" routeLength="995.70" waitingTime="8.00" waitingCount="1" stopTime="0.00" timeLoss="22.48" rerouteNo="0" devices="tripinfo_WE_3" vType="car" speedFactor="0.94" vaporized=""/>
    <tripinfo id="WE_23" depart="23.00" departLane="1i_0" departPos="4.10" departSpeed="0.00" departDelay="0.00" arrival="122.00" arrivalLane="3o_0" arrivalPos="492.80" arrivalSpeed="8.70" duration="99.00" routeLength="990.53" waitingTime="1.00" waitingCount="1" stopTime="0.00" timeLoss="13.84" rerouteNo="0" devices="tripinfo_WE_23" vType="car" speedFactor="0.83" vaporized=""/>
    <tripinfo id="EW_26" depart="26.00" departLane="4i_0" departPos="10.10" departSpeed="0.00" departDelay="0.00" arrival="124.00" arrivalLane="3o_0" arrivalPos="492.80" arrivalSpeed="10.24" duration="98.00" routeLength="989.90" waitingTime="0.00" waitingCount="0" stopTime="0.00" timeLoss="29.01" rerouteNo="0" devices="tripinfo_EW_26" vType="truck" speedFactor="1.02" vaporized=""/>
    <tripinfo id="WE_47" depart="47.00" departLane="1i_0" departPos="4.10" departSpeed="0.00" departDelay="0.00" arrival="126.00" arrivalLane="3o_0" arrivalPos="492.80" arrivalSpeed="10.10" duration="79.00" routeLength="990.53" waitingTime="0.00" waitingCount="0" stopTime="0.00" timeLoss="10.52" rerouteNo="0" devices="tripinfo_WE_47" vType="car" speedFactor="1.03" vaporized=""/>
    <tripinfo id="NS_39" depart="39.00" departLane="2i_0" departPos="4.10" departSpeed="0.00" departDelay="0.00" arrival="128.00" arrivalLane="4o_0" arrivalPos="492.80" arrivalSpeed="9.10" duration="89.00" routeLength="990.53" waitingTime="0.00" waitingCount="0" stopTime="0.00" timeLoss="9.16" rerouteNo="0" devices="tripinfo_NS_39" vType="car" speedFactor="0.89" vaporized=""/>
    <tripinfo id="NS_46" depart="46.00" departLane="2i_0" departPos="4.10" departSpeed="0.00" departDelay="0.00" arrival="130.00" arrivalLane="4o_0" arrivalPos="492.80" arrivalSpeed="10.85" duration="84.00" routeLength="990.53" waitingTime="0.00" waitingCount="0" stopTime="0.00" timeLoss="18.93" rerouteNo="0" devices="tripinfo_NS_46" vType="car" speedFactor="1.09" vaporized=""/>
    <tripinfo id="EW_52" depart="52.00" departLane="4i_0" departPos="4.10" departSpeed="0.00" departDelay="0.00" arrival="131.00" arrivalLane="1o_0" arrivalPos="492.80" arrivalSpeed="10.55" duration="79.00" routeLength="990.53" waitingTime="0.00" waitingCount="0" stopTime="0.00" timeLoss="11.51" rerouteNo="0" devices="tripinfo_EW_52" vType="car" speedFactor="1.05" vaporized=""/>
    <tripinfo id="EW_42" depart="42.00" departLane="4i_0" departPos="4.10" departSpeed="0.00" departDelay="0.00" arrival="132.00" arrivalLane="3o_0" arrivalPos="492.80" arrivalSpeed="9.87" duration="90.00" routeLength="995.90" waitingTime="3.00" waitingCount="1" stopTime="0.00" timeLoss="14.57" rerouteNo="0" devices="tripinfo_EW_42" vType="car" speedFactor="0.94" vaporized=""/>
    <tripinfo id="EW_54" depart="55.00" departLane="4i_0" departPos="4.10" departSpeed="0.00" departDelay="1.00" arrival="134.00" arrivalLane="2o_0" arrivalPos="492.80" arrivalSpeed="12.32" duration="79.00" routeLength="995.70" waitingTime="1.00" waitingCount="1" stopTime="0.00" timeLoss="15.54" rerouteNo="0" devices="tripinfo_EW_54" vType="car" speedFactor="1.12" vaporized=""/>
    <tripinfo id="EW_46" depart="46.00" departLane="4i_0" departPos="4.10" departSpeed="0.00" departDelay="0.00" arrival="141.00" arrivalLane="3o_0" arrivalPos="492.80" arrivalSpeed="8.48" duration="95.00" routeLength="995.90" waitingTime="0.00" waitingCount="0" stopTime="0.00" timeLoss="12.36" rerouteNo="0" devices="tripinfo_EW_46" vType="car" speedFactor="0.86" vaporized=""/>
    <tripinfo id="SN_59" depart="59.00" departLane="3i_0" departPos="4.10" departSpeed="0.00" departDelay="0.00" arrival="144.00" arrivalLane="2o_0" arrivalPos="492.80" arrivalSpeed="10.01" duration="85.00" routeLength="990.53" waitingTime="0.00" waitingCount="0" stopTime="0.00" timeLoss="9.06" rerouteNo="0" devices="tripinfo_SN_59" vType="car" speedFactor="0.93" vaporized=""/>
    <tripinfo id="NS_58" depart="58.00" departLane="2i_0" departPos="10.10" departSpeed="0.00" departDelay="0.00" arrival="148.00" arrivalLane="3o_0" arrivalPos="492.80" arrivalSpeed="10.76" duration="90.00" routeLength="989.70" waitingTime="0.00" waitingCount="0" stopTime="0.00" timeLoss="18.79" rerouteNo="0" devices="tripinfo_NS_58" vType="truck" speedFactor="1.00" vaporized=""/>
    <tripinfo id="WE_60" depart="60.00" departLane="1i_0" departPos="4.10" departSpeed="0.00" departDelay="0.00" arrival="151.00" arrivalLane="2o_0" arrivalPos="492.80" arrivalSpeed="8.71" duration="91.00" routeLength="995.90" waitingTime="0.00" waitingCount="0" stopTime="0.00" timeLoss="9.92" rerouteNo="0" devices="tripinfo_WE_60" vType="car" speedFactor="0.88" vaporized=""/>
    <tripinfo id="NS_68" depart="68.00" departLane="2i_0" departPos="4.10" departSpeed="0.00" departDelay="0.00" arrival="151.00" arrivalLane="1o_0" arrivalPos="492.80" arrivalSpeed="12.16" duration="83.00" routeLength="995.90" waitingTime="4.00" waitingCount="1" stopTime="0.00" timeLoss="22.10" rerouteNo="0" devices="tripinfo_NS_68" vType="car" speedFactor="1.16" vaporized=""/>
    <tripinfo id="SN_63" depart="63.00" departLane="3i_0" departPos="4.10" departSpeed="0.00" departDelay="0.00" arrival="155.00" arrivalLane="4o_0" arrivalPos="492.80" arrivalSpeed="10.04" duration="92.00" routeLength="995.90" waitingTime="3.00" waitingCount="2" stopTime="0.00" timeLoss="16.74" rerouteNo="0" devices="tripinfo_SN_63" vType="car" speedFactor="0.94" vaporized=""/>
    <tripinfo id="EW_67" depart="67.00" departLane="4i_0" departPos="4.10" departSpeed="0.00" departDelay="0.00" arrival="155.00" arrivalLane="3o_0" arrivalPos="492.80" arrivalSpeed="10.34" duration="88.00" routeLength="995.90" waitingTime="0.00" waitingCount="0" stopTime="0.00" timeLoss="11.73" rerouteNo="0" devices="tripinfo_EW_67" vType="car" speedFactor="0.94" vaporized=""/>
    <tripinfo id="EW_81" depart="81.00" departLane="4i_0" departPos="4.10" departSpeed="0.00" departDelay="0.00" arrival="160.00" arrivalLane="2o_0" arrivalPos="492.80" arrivalSpeed="10.72" duration="79.00" routeLength="995.70" waitingTime="0.00" waitingCount="0" stopTime="0.00" timeLoss="9.22" rerouteNo="0" devices="tripinfo_EW_81" vType="car" speedFactor="1.02" vaporized=""/>
    <tripinfo id="NS_82" depart="82.00" departLane="2i_0" departPos="4.10" departSpeed="0.00" departDelay="0.00" arrival="164.00" arrivalLane="1o_0" arrivalPos="492.80" arrivalSpeed="10.52" duration="82.00" routeLength="995.90" waitingTime="0.00" waitingCount="0" stopTime="0.00" timeLoss="11.67" rerouteNo="0" devices="tripinfo_NS_82" vType="car" speedFactor="1.01" vaporized=""/>
    <tripinfo id="SN_84" depart="84.00" departLane="3i_0" departPos="4.10" departSpeed="0.00" departDelay="0.00" arrival="176.00" arrivalLane="1o_0" arrivalPos="492.80" arrivalSpeed="10.50" duration="92.00" routeLength="995.70" waitingTime="4.00" waitingCount="2" stopTime="0.00" timeLoss="19.53" rerouteNo="0" devices="tripinfo_SN_84" vType="car" speedFactor="0.97" vaporized=""/>
    <tripinfo id="EW_88" depart="88.00" departLane="4i_0" departPos="4.10" departSpeed="0.00" departDelay="0.00" arrival="177.00" arrivalLane="3o_0" arrivalPos="492.80" arrivalSpeed="9.63" duration="89.00" routeLength="995.90" waitingTime="0.00" waitingCount="0" stopTime="0.00" timeLoss="8.68" rerouteNo="0" devices="tripinfo_EW_88" vType="car" speedFactor="0.89" vaporized=""/>
    <tripinfo id="WE_98" depart="98.00" departLane="1i_0" departPos="4.10" departSpeed="0.00" departDelay="0.00" arrival="183.00" arrivalLane="4o_0" arrivalPos="492.80" arrivalSpeed="10.06" duration="85.00" routeLength="995.70" waitingTime="0.00" waitingCount="0" stopTime="0.00" timeLoss="9.77" rerouteNo="0" devices="tripinfo_WE_98" vType="car" speedFactor="0.95" vaporized=""/>
    <tripinfo id="NS_90" depart="90.00" departLane="2i_0" departPos="4.10" departSpeed="0.00" departDelay="0.00" arrival="184.00" arrivalLane="1o_0" arrivalPos="492.80" arrivalSpeed="9.67" duration="94.00" routeLength="995.90" waitingTime="0.00" waitingCount="0" stopTime="0.00" timeLoss="12.12" rerouteNo="0" devices="tripinfo_NS_90" vType="car" speedFactor="0.87" vaporized=""/>
    <tripinfo id="EW_99" depart="99.00" departLane="4i_0" departPos="4.10" departSpeed="0.00" departDelay="0.00" arrival="185.00" arrivalLane="1o_0" arrivalPos="492.80" arrivalSpeed="11.44" duration="86.00" routeLength="990.53" waitingTime="0.00" waitingCount="0" stopTime="0.00" timeLoss="23.72" rerouteNo="0" devices="tripinfo_EW_99" vType="car" speedFactor="1.13" vaporized=""/>
    <tripinfo id="NS_116" depart="116.00" departLane="2i_0" departPos="4.10" departSpeed="0.00" departDelay="0.00" arrival="185.00" arrivalLane="4o_0" arrivalPos="492.80" arrivalSpeed="12.02" duration="69.00" routeLength="990.53" waitingTime="0.00" waitingCount="0" stopTime="0.00" timeLoss="9.30" rerouteNo="0" devices="tripinfo_NS_116" vType="car" speedFactor="1.18" vaporized=""/>
    <tripinfo id="SN_96" depart="96.00" departLane="3i_0" departPos="4.10" departSpeed="0.00" departDelay="0.00" arrival="187.00" arrivalLane="1o_0" arrivalPos="492.80" arrivalSpeed="9.11" duration="91.00" routeLength="995.70" waitingTime="1.00" waitingCount="1" stopTime="0.00" timeLoss="14.12" rerouteNo="0" devices="tripinfo_SN_96" vType="car" speedFactor="0.92" vaporized=""/>
    <tripinfo id="SN_89" depart="89.00" departLane="3i_0" departPos="4.10" departSpeed="0.00" departDelay="0.00" arrival="188.00" arrivalLane="2o_0" arrivalPos="492.80" arrivalSpeed="9.14" duration="99.00" routeLength="990.53" waitingTime="0.00" waitingCount="0" stopTime="0.00" timeLoss="13.45" rerouteNo="0" devices="tripinfo_SN_89" vType="car" speedFactor="0.83" vaporized=""/>
    <tripinfo id="WE_105" depart="105.00" departLane="1i_0" departPos="4.10" departSpeed="0.00" departDelay="0.00" arrival="190.00" arrivalLane="2o_0" arrivalPos="492.80" arrivalSpeed="9.56" duration="85.00" routeLength="995.90" waitingTime="0.00" waitingCount="0" stopTime="0.00" timeLoss="8.70" rerouteNo="0" devices="tripinfo_WE_105" vType="car" speedFactor="0.93" vaporized=""/>
    <tripinfo id="NS_120" depart="120.00" departLane="2i_0" departPos="4.10" departSpeed="0.00" departDelay="0.00" arrival="193.00" arrivalLane="3o_0" arrivalPos="492.80" arrivalSpeed="11.82" duration="73.00" routeLength="995.70" waitingTime="0.00" waitingCount="0" stopTime="0.00" timeLoss="11.29" rerouteNo="0" devices="tripinfo_NS_120" vType="car" speedFactor="1.15" vaporized=""/>
    <tripinfo id="NS_122" depart="123.00" departLane="2i_0" departPos="4.10" departSpeed="0.00" departDelay="1.00" arrival="195.00" arrivalLane="3o_0" arrivalPos="492.80" arrivalSpeed="12.40" duration="72.00" routeLength="995.70" waitingTime="0.00" waitingCount="0" stopTime="0.00" timeLoss="11.12" rerouteNo="0" devices="tripinfo_NS_122" vType="car" speedFactor="1.17" vaporized=""/>
    <tripinfo id="EW_128" depart="128.00" departLane="4i_0" departPos="4.10" departSpeed="0.00" departDelay="0.00" arrival="201.00" arrivalLane="3o_0" arrivalPos="492.80" arrivalSpeed="11.25" duration="73.00" routeLength="995.90" waitingTime="0.00" waitingCount="0" stopTime="0.00" timeLoss="8.88" rerouteNo="0" devices="tripinfo_EW_128" vType="car" speedFactor="1.10" vaporized=""/>
    <tripinfo id="SN_124" depart="124.00" departLane="3i_0" departPos="4.10" departSpeed="0.00" departDelay="0.00" arrival="203.00" arrivalLane="4o_0" arrivalPos="492.80" arrivalSpeed="10.41" duration="79.00" routeLength="995.90" waitingTime="0.00" waitingCount="0" stopTime="0.00" timeLoss="8.93" rerouteNo="0" devices="tripinfo_SN_124" vType="car" speedFactor="1.02" vaporized=""/>
    <tripinfo id="SN_125" depart="127.00" departLane="3i_0" departPos="10.10" departSpeed="0.00" departDelay="2.00" arrival="213.00" arrivalLane="2o_0" arrivalPos="492.80" arrivalSpeed="10.72" duration="86.00" routeLength="984.53" waitingTime="0.00" waitingCount="0" stopTime="0.00" timeLoss="14.81" rerouteNo="0" devices="tripinfo_SN_125" vType="truck" speedFactor="0.99" vaporized=""/>
    <tripinfo id="WE_122" depart="122.00" departLane="1i_0" departPos="10.10" departSpeed="0.00" departDelay="0.00" arrival="215.00" arrivalLane="4o_0" arrivalPos="492.80" arrivalSpeed="10.92" duration="93.00" routeLength="989.70" waitingTime="0.00" waitingCount="0" stopTime="0.00" timeLoss="22.95" rerouteNo="0" devices="tripinfo_WE_122" vType="truck" speedFactor="1.00" vaporized=""/>
    <tripinfo id="WE_123" depart="126.00" departLane="1i_0" departPos="4.10" departSpeed="0.00" departDelay="3.00" arrival="223.00" arrivalLane="3o_0" arrivalPos="492.80" arrivalSpeed="9.95" duration="97.00" routeLength="990.53" waitingTime="4.00" waitingCount="1" stopTime="0.00" timeLoss="25.82" rerouteNo="0" devices="tripinfo_WE_123" vType="car" speedFactor="0.99" vaporized=""/>
    <tripinfo id="SN_132" depart="132.00" departLane="3i_0" departPos="4.10" departSpeed="0.00" departDelay="0.00" arrival="225.00" arrivalLane="1o_0" arrivalPos="492.80" arrivalSpeed="11.40" duration="93.00" routeLength="995.70" waitingTime="6.00" waitingCount="1" stopTime="0.00" timeLoss="24.00" rerouteNo="0" devices="tripinfo_SN_132" vType="car" speedFactor="1.03" vaporized=""/>
    <tripinfo id="NS_133" depart="134.00" departLane="2i_0" departPos="4.10" departSpeed="0.00" departDelay="1.00" arrival="225.00" arrivalLane="4o_0" arrivalPos="492.80" arrivalSpeed="10.03" duration="91.00" routeLength="990.53" waitingTime="3.00" waitingCount="1" stopTime="0.00" timeLoss="17.57" rerouteNo="0" devices="tripinfo_NS_133" vType="car" speedFactor="0.96" vaporized=""/>
    <tripinfo id="NS_142" depart="142.00" departLane="2i_0" departPos="4.10" departSpeed="0.00" departDelay="0.00" arrival="227.00" arrivalLane="1o_0" arrivalPos="492.80" arrivalSpeed="11.24" duration="85.00" routeLength="995.90" waitingTime="2.00" waitingCount="1" stopTime="0.00" timeLoss="16.93" rerouteNo="0" devices="tripinfo_NS_142" vType="car" speedFactor="1.04" vaporized=""/>
    <tripinfo id="EW_129" depart="131.00" departLane="4i_0" departPos="4.10" departSpeed="0.00" departDelay="2.00" arrival="228.00" arrivalLane="2o_0" arrivalPos="492.80" arrivalSpeed="9.28" duration="97.00" routeLength="995.70" waitingTime="4.00" waitingCount="1" stopTime="0.00" timeLoss="18.24" rerouteNo="0" devices="tripinfo_EW_129" vType="car" speedFactor="0.90" vaporized=""/>
    <tripinfo id="EW_139" depart="139.00" departLane="4i_0" departPos="4.10" departSpeed="0.00" departDelay="0.00" arrival="230.00" arrivalLane="2o_0" arrivalPos="492.80" arrivalSpeed="11.42" duration="91.00" routeLength="995.70" waitingTime="1.00" waitingCount="1" stopTime="0.00" timeLoss="25.64" rerouteNo="0" devices="tripinfo_EW_139" vType="car" speedFactor="1.09" vaporized=""/>
    <tripinfo id="NS_143" depart="145.00" departLane="2i_0" departPos="4.10" departSpeed="0.00" departDelay="2.00" arrival="231.00" arrivalLane="4o_0" arrivalPos="492.80" arrivalSpeed="10.56" duration="86.00" routeLength="990.53" waitingTime="1.00" waitingCount="1" stopTime="0.00" timeLoss="18.00" rerouteNo="0" devices="tripinfo_NS_143" vType="car" speedFactor="1.04" vaporized=""/>
    <tripinfo id="SN_143" depart="143.00" departLane="3i_0" departPos="4.10" departSpeed="0.00" departDelay="0.00" arrival="231.00" arrivalLane="2o_0" arrivalPos="492.80" arrivalSpeed="11.96" duration="88.00" routeLength="990.53" waitingTime="4.00" waitingCount="2" stopTime="0.00" timeLoss="23.40" rerouteNo="0" devices="tripinfo_SN_143" vType="car" speedFactor="1.09" vaporized=""/>
    <tripinfo id="WE_127" depart="129.00" departLane="1i_0" departPos="4.10" departSpeed="0.00" departDelay="2.00" arrival="232.00" arrivalLane="4o_0" arrivalPos="492.80" arrivalSpeed="11.94" duration="103.00" routeLength="995.70" waitingTime="7.00" waitingCount="2" stopTime="0.00" timeLoss="43.13" rerouteNo="0" devices="tripinfo_WE_127" vType="car" speedFactor="1.18" vaporized=""/>
    <tripinfo id="NS_152" depart="154.00" departLane="2i_0" departPos="4.10" departSpeed="0.00" departDelay="2.00" arrival="240.00" arrivalLane="3o_0" arrivalPos="492.80" arrivalSpeed="10.81" duration="86.00" routeLength="995.70" waitingTime="0.00" waitingCount="0" stopTime="0.00" timeLoss="16.47" rerouteNo="0" devices="tripinfo_NS_152" vType="car" speedFactor="1.02" vaporized=""/>
    <tripinfo id="EW_150" depart="150.00" departLane="4i_0" departPos="4.10" departSpeed="0.00" departDelay="0.00" arrival="241.00" arrivalLane="2o_0" arrivalPos="492.80" arrivalSpeed="9.60" duration="91.00" routeLength="995.70" waitingTime="0.00" waitingCount="0" stopTime="0.00" timeLoss="10.33" rerouteNo="0" devices="tripinfo_EW_150" vType="car" speedFactor="0.88" vaporized=""/>
    <tripinfo id="SN_170" depart="170.00" departLane="3i_0" departPos="4.10" departSpeed="0.00" departDelay="0.00" arrival="243.00" arrivalLane="2o_0" arrivalPos="492.80" arrivalSpeed="12.34" duration="73.00" routeLength="990.53" waitingTime="1.00" waitingCount="1" stopTime="0.00" timeLoss="10.90" rerouteNo="0" devices="tripinfo_SN_170" vType="car" speedFactor="1.14" vaporized=""/>
    <tripinfo id="SN_150" depart="150.00" departLane="3i_0" departPos="4.10" departSpeed="0.00" departDelay="0.00" arrival="247.00" arrivalLane="1o_0" arrivalPos="492.80" arrivalSpeed="8.79" duration="97.00" routeLength="995.70" waitingTime="0.00" waitingCount="0" stopTime="0.00" timeLoss="13.52" rerouteNo="0" devices="tripinfo_SN_150" vType="car" speedFactor="0.85" vaporized=""/>
    <tripinfo id="NS_151" depart="151.00" departLane="2i_0" departPos="4.10" departSpeed="0.00" departDelay="0.00" arrival="247.00" arrivalLane="4o_0" arrivalPos="492.80" arrivalSpeed="8.58" duration="96.00" routeLength="990.53" waitingTime="0.00" waitingCount="0" stopTime="0.00" timeLoss="13.71" rerouteNo="0" devices="tripinfo_NS_151" vType="car" speedFactor="0.85" vaporized=""/>
    <tripinfo id="WE_145" depart="145.00" departLane="1i_0" departPos="4.10" departSpeed="0.00" departDelay="0.00" arrival="249.00" arrivalLane="4o_0" arrivalPos="492.80" arrivalSpeed="10.49" duration="104.00" routeLength="995.70" waitingTime="9.00" waitingCount="2" stopTime="0.00" timeLoss="32.85" rerouteNo="0" devices="tripinfo_WE_145" vType="car" speedFactor="1.00" vaporized=""/>
    <tripinfo id="WE_160" depart="160.00" departLane="1i_0" departPos="4.10" departSpeed="0.00" departDelay="0.00" arrival="251.00" arrivalLane="4o_0" arrivalPos="492.80" arrivalSpeed="11.03" duration="91.00" routeLength="995.70" waitingTime="1.00" waitingCount="1" stopTime="0.00" timeLoss="25.75" rerouteNo="0" devices="tripinfo_WE_160" vType="car" speedFactor="1.10" vaporized=""/>
    <tripinfo id="EW_165" depart="165.00" departLane="4i_0" departPos="4.10" departSpeed="0.00" departDelay="0.00" arrival="252.00" arrivalLane="2o_0" arrivalPos="492.80" arrivalSpeed="10.63" duration="87.00" routeLength="995.70" waitingTime="2.00" waitingCount="1" stopTime="0.00" timeLoss="16.21" rerouteNo="0" devices="tripinfo_EW_165" vType="car" speedFactor="1.00" vaporized=""/>
    <tripinfo id="WE_150" depart="151.00" departLane="1i_0" departPos="4.10" departSpeed="0.00" departDelay="1.00" arrival="253.00" arrivalLane="3o_0" arrivalPos="492.80" arrivalSpeed="9.15" duration="102.00" routeLength="990.53" waitingTime="5.00" waitingCount="2" stopTime="0.00" timeLoss="23.46" rerouteNo="0" devices="tripinfo_WE_150" vType="car" speedFactor="0.90" vaporized=""/>
    <tripinfo id="WE_152" depart="154.00" departLane="1i_0" departPos="4.10" departSpeed="0.00" departDelay="2.00" arrival="254.00" arrivalLane="3o_0" arrivalPos="492.80" arrivalSpeed="11.79" duration="100.00" routeLength="990.53" waitingTime="2.00" waitingCount="1" stopTime="0.00" timeLoss="39.83" rerouteNo="0" devices="tripinfo_WE_152" vType="car" speedFactor="1.17" vaporized=""/>
    <tripinfo id="EW_173" depart="173.00" departLane="4i_0" departPos="4.10" departSpeed="0.00" departDelay="0.00" arrival="257.00" arrivalLane="3o_0" arrivalPos="492.80" arrivalSpeed="10.05" duration="84.00" routeLength="995.90" waitingTime="0.00" waitingCount="0" stopTime="0.00" timeLoss="10.97" rerouteNo="0" devices="tripinfo_EW_173" vType="car" speedFactor="0.97" vaporized=""/>
    <tripinfo id="WE_165" depart="165.00" departLane="1i_0" departPos="4.10" departSpeed="0.00" departDelay="0.00" arrival="259.00" arrivalLane="3o_0" arrivalPos="492.80" arrivalSpeed="10.85" duration="94.00" routeLength="990.53" waitingTime="0.00" waitingCount="0" stopTime="0.00" timeLoss="23.66" rerouteNo="0" devices="tripinfo_WE_165" vType="car" speedFactor="1.00" vaporized=""/>
    <tripinfo id="SN_171" depart="174.00" departLane="3i_0" departPos="10.10" departSpeed="0.00" departDelay="3.00" arrival="259.00" arrivalLane="4o_0" arrivalPos="492.80" arrivalSpeed="10.83" duration="85.00" routeLength="989.90" waitingTime="0.00" waitingCount="0" stopTime="0.00" timeLoss="15.40" rerouteNo="0" devices="tripinfo_SN_171" vType="truck" speedFactor="1.01" vaporized=""/>
    <tripinfo id="NS_182" depart="182.00" departLane="2i_0" departPos="4.10" departSpeed="0.00" departDelay="0.00" arrival="261.00" arrivalLane="3o_0" arrivalPos="492.80" arrivalSpeed="11.87" duration="79.00" routeLength="995.70" waitingTime="0.00" waitingCount="0" stopTime="0.00" timeLoss="15.14" rerouteNo="0" devices="tripinfo_NS_182" vType="car" speedFactor="1.12" vaporized=""/>
    <tripinfo id="WE_169" depart="169.00" departLane="1i_0" departPos="4.10" departSpeed="0.00" departDelay="0.00" arrival="269.00" arrivalLane="3o_0" arrivalPos="492.80" arrivalSpeed="9.72" duration="100.00" routeLength="990.53" waitingTime="0.00" waitingCount="0" stopTime="0.00" timeLoss="21.55" rerouteNo="0" devices="tripinfo_WE_169" vType="car" speedFactor="0.90" vaporized=""/>
    <tripinfo id="NS_186" depart="186.00" departLane="2i_0" departPos="4.10" departSpeed="0.00" departDelay="0.00" arrival="271.00" arrivalLane="4o_0" arrivalPos="492.80" arrivalSpeed="10.19" duration="85.00" routeLength="990.53" waitingTime="3.00" waitingCount="1" stopTime="0.00" timeLoss="15.64" rerouteNo="0" devices="tripinfo_NS_186" vType="car" speedFactor="1.02" vaporized=""/>
    <tripinfo id="NS_201" depart="201.00" departLane="2i_0" departPos="4.10" departSpeed="0.00" departDelay="0.00" arrival="285.00" arrivalLane="4o_0" arrivalPos="492.80" arrivalSpeed="10.26" duration="84.00" routeLength="990.53" waitingTime="0.00" waitingCount="0" stopTime="0.00" timeLoss="8.33" rerouteNo="0" devices="tripinfo_NS_201" vType="car" speedFactor="0.94" vaporized=""/>
    <tripinfo id="WE_174" depart="174.00" departLane="1i_0" departPos="4.10" departSpeed="0.00" departDelay="0.00" arrival="287.00" arrivalLane="4o_0" arrivalPos="492.80" arrivalSpeed="11.23" duration="113.00" routeLength="995.70" waitingTime="14.00" waitingCount="2" stopTime="0.00" timeLoss="47.02" rerouteNo="0" devices="tripinfo_WE_174" vType="car" speedFactor="1.08" vaporized=""/>
    <tripinfo id="EW_200" depart="200.00" departLane="4i_0" departPos="4.10" departSpeed="0.00" departDelay="0.00" arrival="287.00" arrivalLane="2o_0" arrivalPos="492.80" arrivalSpeed="10.24" duration="87.00" routeLength="995.70" waitingTime="0.00" waitingCount="0" stopTime="0.00" timeLoss="15.14" rerouteNo="0" devices="tripinfo_EW_200" vType="car" speedFactor="0.99" vaporized=""/>
    <tripinfo id="EW_206" depart="206.00" departLane="4i_0" departPos="4.10" departSpeed="0.00" departDelay="0.00" arrival="294.00" arrivalLane="1o_0" arrivalPos="492.80" arrivalSpeed="9.02" duration="88.00" routeLength="990.53" waitingTime="0.00" waitingCount="0" stopTime="0.00" timeLoss="9.60" rerouteNo="0" devices="tripinfo_EW_206" vType="car" speedFactor="0.91" vaporized=""/>
    <tripinfo id="EW_207" depart="209.00" departLane="4i_0" departPos="4.10" departSpeed="0.00" departDelay="2.00" arrival="296.00" arrivalLane="1o_0" arrivalPos="492.80" arrivalSpeed="9.60" duration="87.00" routeLength="990.53" waitingTime="0.00" waitingCount="0" stopTime="0.00" timeLoss="9.26" rerouteNo="0" devices="tripinfo_EW_207" vType="car" speedFactor="0.91" vaporized=""/>
    <tripinfo id="SN_211" depart="211.00" departLane="3i_0" departPos="10.10" departSpeed="0.00" departDelay="0.00" arrival="297.00" arrivalLane="2o_0" arrivalPos="492.80" arrivalSpeed="10.97" duration="86.00" routeLength="984.53" waitingTime="0.00" waitingCount="0" stopTime="0.00" timeLoss="16.74" rerouteNo="0" devices="tripinfo_SN_211" vType="truck" speedFactor="1.01" vaporized=""/>
    <tripinfo id="SN_204" depart="204.00" departLane="3i_0" departPos="4.10" departSpeed="0.00" departDelay="0.00" arrival="302.00" arrivalLane="1o_0" arrivalPos="492.80" arrivalSpeed="9.05" duration="98.00" routeLength="995.70" waitingTime="4.00" waitingCount="1" stopTime="0.00" timeLoss="17.35" rerouteNo="0" devices="tripinfo_SN_204" vType="car" speedFactor="0.88" vaporized=""/>
    <tripinfo id="SN_213" depart="215.00" departLane="3i_0" departPos="4.10" departSpeed="0.00" departDelay="2.00" arrival="303.00" arrivalLane="2o_0" arrivalPos="492.80" arrivalSpeed="10.34" duration="88.00" routeLength="990.53" waitingTime="0.00" waitingCount="0" stopTime="0.00" timeLoss="15.34" rerouteNo="0" devices="tripinfo_SN_213" vType="car" speedFactor="0.97" vaporized=""/>
    <tripinfo id="NS_209" depart="209.00" departLane="2i_0" departPos="10.10" departSpeed="0.00" departDelay="0.00" arrival="304.00" arrivalLane="1o_0" arrivalPos="492.80" arrivalSpeed="10.85" duration="95.00" routeLength="989.90" waitingTime="0.00" waitingCount="0" stopTime="0.00" timeLoss="25.72" rerouteNo="0" devices="tripinfo_NS_209" vType="truck" speedFactor="1.02" vaporized=""/>
    <tripinfo id="SN_222" depart="223.00" departLane="3i_0" departPos="4.10" departSpeed="0.00" departDelay="1.00" arrival="305.00" arrivalLane="2o_0" arrivalPos="492.80" arrivalSpeed="11.37" duration="82.00" routeLength="990.53" waitingTime="0.00" waitingCount="0" stopTime="0.00" timeLoss="14.72" rerouteNo="0" devices="tripinfo_SN_222" vType="car" speedFactor="1.06" vaporized=""/>
    <tripinfo id="NS_210" depart="213.00" departLane="2i_0" departPos="4.10" departSpeed="0.00" departDelay="3.00" arrival="306.00" arrivalLane="1o_0" arrivalPos="492.80" arrivalSpeed="10.83" duration="93.00" routeLength="995.90" waitingTime="0.00" waitingCount="0" stopTime="0.00" timeLoss="23.82" rerouteNo="0" devices="tripinfo_NS_210" vType="car" speedFactor="1.02" vaporized=""/>
    <tripinfo id="WE_220" depart="220.00" departLane="1i_0" departPos="4.10" departSpeed="0.00" departDelay="0.00" arrival="310.00" arrivalLane="2o_0" arrivalPos="492.80" arrivalSpeed="9.62" duration="90.00" routeLength="995.90" waitingTime="2.00" waitingCount="1" stopTime="0.00" timeLoss="14.63" rerouteNo="0" devices="tripinfo_WE_220" vType="car" speedFactor="0.94" vaporized=""/>
    <tripinfo id="NS_231" depart="231.00" departLane="2i_0" departPos="4.10" departSpeed="0.00" departDelay="0.00" arrival="310.00" arrivalLane="4o_0" arrivalPos="492.80" arrivalSpeed="9.90" duration="79.00" routeLength="990.53" waitingTime="0.00" waitingCount="0" stopTime="0.00" timeLoss="7.66" rerouteNo="0" devices="tripinfo_NS_231" vType="car" speedFactor="0.98" vaporized=""/>
    <tripinfo id="NS_232" depart="233.00" departLane="2i_0" departPos="4.10" departSpeed="0.00" departDelay="1.00" arrival="311.00" arrivalLane="1o_0" arrivalPos="492.80" arrivalSpeed="10.67" duration="78.00" routeLength="995.90" waitingTime="0.00" waitingCount="0" stopTime="0.00" timeLoss="8.94" rerouteNo="0" devices="tripinfo_NS_232" vType="car" speedFactor="1.03" vaporized=""/>