<?xml version="1.0" encoding="UTF-8"?>

<!-- generated on 2024-05-05 17:32:16 by Eclipse SUMO sumo Version 1.19.0
<configuration xmlns:xsi="http://www.w3.org/2001/XMLSchema-instance" xsi:noNamespaceSchemaLocation="http://sumo.dlr.de/xsd/sumoConfiguration.xsd">

    <input>
        <net-file value="twoone.net.xml"/>
        <route-files value="route_gen.rou.xml"/>
    </input>

    <output>
        <tripinfo-output value="tripinfo_epi321.xml"/>
    </output>

    <report>
        <no-warnings value="true"/>
    </report>

    <traci_server>
        <remote-port value="41775"/>
    </traci_server>

</configuration>
-->

<tripinfos xmlns:xsi="http://www.w3.org/2001/XMLSchema-instance" xsi:noNamespaceSchemaLocation="http://sumo.dlr.de/xsd/tripinfo_file.xsd">
    <tripinfo id="SN_0" depart="0.00" departLane="3i_0" departPos="4.10" departSpeed="0.00" departDelay="0.00" arrival="77.00" arrivalLane="1o_0" arrivalPos="492.80" arrivalSpeed="11.05" duration="77.00" routeLength="995.70" waitingTime="0.00" waitingCount="0" stopTime="0.00" timeLoss="9.50" rerouteNo="0" devices="tripinfo_SN_0" vType="car" speedFactor="1.06" vaporized=""/>
    <tripinfo id="WE_7" depart="7.00" departLane="1i_0" departPos="4.10" departSpeed="0.00" departDelay="0.00" arrival="84.00" arrivalLane="3o_0" arrivalPos="492.80" arrivalSpeed="10.70" duration="77.00" routeLength="990.53" waitingTime="0.00" waitingCount="0" stopTime="0.00" timeLoss="7.42" rerouteNo="0" devices="tripinfo_WE_7" vType="car" speedFactor="1.01" vaporized=""/>
    <tripinfo id="EW_8" depart="8.00" departLane="4i_0" departPos="4.10" departSpeed="0.00" departDelay="0.00" arrival="88.00" arrivalLane="3o_0" arrivalPos="492.80" arrivalSpeed="11.46" duration="80.00" routeLength="995.90" waitingTime="0.00" waitingCount="0" stopTime="0.00" timeLoss="14.31" rerouteNo="0" devices="tripinfo_EW_8" vType="car" speedFactor="1.08" vaporized=""/>
    <tripinfo id="EW_3" depart="3.00" departLane="4i_0" departPos="4.10" departSpeed="0.00" departDelay="0.00" arrival="91.00" arrivalLane="2o_0" arrivalPos="492.80" arrivalSpeed="10.38" duration="88.00" routeLength="995.70" waitingTime="1.00" waitingCount="1" stopTime="0.00" timeLoss="12.60" rerouteNo="0" devices="tripinfo_EW_3" vType="car" speedFactor="0.94" vaporized=""/>
    <tripinfo id="NS_19" depart="19.00" departLane="2i_0" departPos="4.10" departSpeed="0.00" departDelay="0.00" arrival="97.00" arrivalLane="3o_0" arrivalPos="492.80" arrivalSpeed="11.08" duration="78.00" routeLength="995.70" waitingTime="0.00" waitingCount="0" stopTime="0.00" timeLoss="9.47" rerouteNo="0" devices="tripinfo_NS_19" vType="car" speedFactor="1.03" vaporized=""/>
    <tripinfo id="WE_26" depart="26.00" departLane="1i_0" departPos="4.10" departSpeed="0.00" departDelay="0.00" arrival="104.00" arrivalLane="3o_0" arrivalPos="492.80" arrivalSpeed="11.07" duration="78.00" routeLength="990.53" waitingTime="1.00" waitingCount="1" stopTime="0.00" timeLoss="10.48" rerouteNo="0" devices="tripinfo_WE_26" vType="car" speedFactor="1.05" vaporized=""/>
    <tripinfo id="NS_27" depart="27.00" departLane="2i_0" departPos="4.10" departSpeed="0.00" departDelay="0.00" arrival="120.00" arrivalLane="3o_0" arrivalPos="492.80" arrivalSpeed="9.01" duration="93.00" routeLength="995.70" waitingTime="0.00" waitingCount="0" stopTime="0.00" timeLoss="12.60" rerouteNo="0" devices="tripinfo_NS_27" vType="car" speedFactor="0.89" vaporized=""/>
    <tripinfo id="NS_24" depart="24.00" departLane="2i_0" departPos="4.10" departSpeed="0.00" departDelay="0.00" arrival="121.00" arrivalLane="1o_0" arrivalPos="492.80" arrivalSpeed="9.02" duration="97.00" routeLength="995.90" waitingTime="1.00" waitingCount="1" stopTime="0.00" timeLoss="11.24" rerouteNo="0" devices="tripinfo_NS_24" vType="car" speedFactor="0.83" vaporized=""/>
    <tripinfo id="NS_32" depart="32.00" departLane="2i_0" departPos="4.10" departSpeed="0.00" departDelay="0.00" arrival="123.00" arrivalLane="1o_0" arrivalPos="492.80" arrivalSpeed="11.70" duration="91.00" routeLength="995.90" waitingTime="0.00" waitingCount="0" stopTime="0.00" timeLoss="25.32" rerouteNo="0" devices="tripinfo_NS_32" vType="car" speedFactor="1.09" vaporized=""/>
    <tripinfo id="EW_30" depart="30.00" departLane="4i_0" departPos="4.10" departSpeed="0.00" departDelay="0.00" arrival="124.00" arrivalLane="1o_0" arrivalPos="492.80" arrivalSpeed="9.35" duration="94.00" routeLength="990.53" waitingTime="2.00" waitingCount="2" stopTime="0.00" timeLoss="19.09" rerouteNo="0" devices="tripinfo_EW_30" vType="car" speedFactor="0.94" vaporized=""/>
    <tripinfo id="WE_40" depart="40.00" departLane="1i_0" departPos="4.10" departSpeed="0.00" departDelay="0.00" arrival="126.00" arrivalLane="3o_0" arrivalPos="492.80" arrivalSpeed="10.41" duration="86.00" routeLength="990.53" waitingTime="0.00" waitingCount="0" stopTime="0.00" timeLoss="18.72" rerouteNo="0" devices="tripinfo_WE_40" vType="car" speedFactor="1.05" vaporized=""/>
    <tripinfo id="EW_45" depart="45.00" departLane="4i_0" departPos="4.10" departSpeed="0.00" departDelay="0.00" arrival="126.00" arrivalLane="1o_0" arrivalPos="492.80" arrivalSpeed="11.18" duration="81.00" routeLength="990.53" waitingTime="0.00" waitingCount="0" stopTime="0.00" timeLoss="17.84" rerouteNo="0" devices="tripinfo_EW_45" vType="car" speedFactor="1.12" vaporized=""/>
    <tripinfo id="WE_31" depart="31.00" departLane="1i_0" departPos="4.10" departSpeed="0.00" departDelay="0.00" arrival="127.00" arrivalLane="4o_0" arrivalPos="492.80" arrivalSpeed="8.69" duration="96.00" routeLength="995.70" waitingTime="0.00" waitingCount="0" stopTime="0.00" timeLoss="13.04" rerouteNo="0" devices="tripinfo_WE_31" vType="car" speedFactor="0.86" vaporized=""/>
    <tripinfo id="WE_35" depart="35.00" departLane="1i_0" departPos="10.10" departSpeed="0.00" departDelay="0.00" arrival="129.00" arrivalLane="4o_0" arrivalPos="492.80" arrivalSpeed="10.27" duration="94.00" routeLength="989.70" waitingTime="0.00" waitingCount="0" stopTime="0.00" timeLoss="24.46" rerouteNo="0" devices="tripinfo_WE_35" vType="truck" speedFactor="1.01" vaporized=""/>
    <tripinfo id="SN_45" depart="45.00" departLane="3i_0" departPos="4.10" departSpeed="0.00" departDelay="0.00" arrival="131.00" arrivalLane="1o_0" arrivalPos="492.80" arrivalSpeed="10.28" duration="86.00" routeLength="995.70" waitingTime="0.00" waitingCount="0" stopTime="0.00" timeLoss="14.69" rerouteNo="0" devices="tripinfo_SN_45" vType="car" speedFactor="0.99" vaporized=""/>
    <tripinfo id="SN_52" depart="52.00" departLane="3i_0" departPos="4.10" departSpeed="0.00" departDelay="0.00" arrival="139.00" arrivalLane="2o_0" arrivalPos="492.80" arrivalSpeed="9.27" duration="87.00" routeLength="990.53" waitingTime="0.00" waitingCount="0" stopTime="0.00" timeLoss="10.40" rerouteNo="0" devices="tripinfo_SN_52" vType="car" speedFactor="0.93" vaporized=""/>
    <tripinfo id="SN_74" depart="74.00" departLane="3i_0" departPos="4.10" departSpeed="0.00" departDelay="0.00" arrival="144.00" arrivalLane="4o_0" arrivalPos="492.80" arrivalSpeed="11.84" duration="70.00" routeLength="995.90" waitingTime="0.00" waitingCount="0" stopTime="0.00" timeLoss="8.48" rerouteNo="0" devices="tripinfo_SN_74" vType="car" speedFactor="1.16" vaporized=""/>
    <tripinfo id="WE_55" depart="55.00" departLane="1i_0" departPos="4.10" departSpeed="0.00" departDelay="0.00" arrival="148.00" arrivalLane="2o_0" arrivalPos="492.80" arrivalSpeed="8.93" duration="93.00" routeLength="995.90" waitingTime="2.00" waitingCount="1" stopTime="0.00" timeLoss="12.47" rerouteNo="0" devices="tripinfo_WE_55" vType="car" speedFactor="0.88" vaporized=""/>
    <tripinfo id="EW_59" depart="59.00" departLane="4i_0" departPos="10.10" departSpeed="0.00" departDelay="0.00" arrival="157.00" arrivalLane="2o_0" arrivalPos="492.80" arrivalSpeed="10.70" duration="98.00" routeLength="989.70" waitingTime="3.00" waitingCount="2" stopTime="0.00" timeLoss="25.04" rerouteNo="0" devices="tripinfo_EW_59" vType="truck" speedFactor="0.97" vaporized=""/>
    <tripinfo id="WE_74" depart="74.00" departLane="1i_0" departPos="4.10" departSpeed="0.00" departDelay="0.00" arrival="163.00" arrivalLane="2o_0" arrivalPos="492.80" arrivalSpeed="9.73" duration="89.00" routeLength="995.90" waitingTime="0.00" waitingCount="0" stopTime="0.00" timeLoss="13.47" rerouteNo="0" devices="tripinfo_WE_74" vType="car" speedFactor="0.94" vaporized=""/>
    <tripinfo id="SN_79" depart="79.00" departLane="3i_0" departPos="4.10" departSpeed="0.00" departDelay="0.00" arrival="165.00" arrivalLane="4o_0" arrivalPos="492.80" arrivalSpeed="10.61" duration="86.00" routeLength="995.90" waitingTime="1.00" waitingCount="1" stopTime="0.00" timeLoss="13.07" rerouteNo="0" devices="tripinfo_SN_79" vType="car" speedFactor="0.97" vaporized=""/>
    <tripinfo id="SN_80" depart="82.00" departLane="3i_0" departPos="4.10" departSpeed="0.00" departDelay="2.00" arrival="176.00" arrivalLane="2o_0" arrivalPos="492.80" arrivalSpeed="8.91" duration="94.00" routeLength="990.53" waitingTime="0.00" waitingCount="0" stopTime="0.00" timeLoss="8.81" rerouteNo="0" devices="tripinfo_SN_80" vType="car" speedFactor="0.83" vaporized=""/>
    <tripinfo id="WE_75" depart="77.00" departLane="1i_0" departPos="4.10" departSpeed="0.00" departDelay="2.00" arrival="178.00" arrivalLane="2o_0" arrivalPos="492.80" arrivalSpeed="10.80" duration="101.00" routeLength="995.90" waitingTime="3.00" waitingCount="1" stopTime="0.00" timeLoss="31.23" rerouteNo="0" devices="tripinfo_WE_75" vType="car" speedFactor="1.02" vaporized=""/>
    <tripinfo id="WE_77" depart="79.00" departLane="1i_0" departPos="4.10" departSpeed="0.00" departDelay="2.00" arrival="180.00" arrivalLane="2o_0" arrivalPos="492.80" arrivalSpeed="10.74" duration="101.00" routeLength="995.90" waitingTime="2.00" waitingCount="1" stopTime="0.00" timeLoss="30.37" rerouteNo="0" devices="tripinfo_WE_77" vType="car" speedFactor="1.01" vaporized=""/>
    <tripinfo id="WE_80" depart="82.00" departLane="1i_0" departPos="4.10" departSpeed="0.00" departDelay="2.00" arrival="181.00" arrivalLane="3o_0" arrivalPos="492.80" arrivalSpeed="9.56" duration="99.00" routeLength="990.53" waitingTime="1.00" waitingCount="1" stopTime="0.00" timeLoss="19.27" rerouteNo="0" devices="tripinfo_WE_80" vType="car" speedFactor="0.89" vaporized=""/>
    <tripinfo id="WE_86" depart="87.00" departLane="1i_0" departPos="4.10" departSpeed="0.00" departDelay="1.00" arrival="182.00" arrivalLane="2o_0" arrivalPos="492.80" arrivalSpeed="9.97" duration="95.00" routeLength="995.90" waitingTime="1.00" waitingCount="1" stopTime="0.00" timeLoss="19.83" rerouteNo="0" devices="tripinfo_WE_86" vType="car" speedFactor="0.95" vaporized=""/>
    <tripinfo id="NS_102" depart="102.00" departLane="2i_0" departPos="4.10" departSpeed="0.00" departDelay="0.00" arrival="182.00" arrivalLane="4o_0" arrivalPos="492.80" arrivalSpeed="11.75" duration="80.00" routeLength="990.53" waitingTime="2.00" waitingCount="1" stopTime="0.00" timeLoss="19.43" rerouteNo="0" devices="tripinfo_NS_102" vType="car" speedFactor="1.17" vaporized=""/>
    <tripinfo id="SN_91" depart="91.00" departLane="3i_0" departPos="4.10" departSpeed="0.00" departDelay="0.00" arrival="183.00" arrivalLane="2o_0" arrivalPos="492.80" arrivalSpeed="11.87" duration="92.00" routeLength="990.53" waitingTime="13.00" waitingCount="1" stopTime="0.00" timeLoss="29.94" rerouteNo="0" devices="tripinfo_SN_91" vType="car" speedFactor="1.13" vaporized=""/>
    <tripinfo id="WE_83" depart="84.00" departLane="1i_0" departPos="4.10" departSpeed="0.00" departDelay="1.00" arrival="184.00" arrivalLane="3o_0" arrivalPos="492.80" arrivalSpeed="8.82" duration="100.00" routeLength="990.53" waitingTime="1.00" waitingCount="1" stopTime="0.00" timeLoss="18.98" rerouteNo="0" devices="tripinfo_WE_83" vType="car" speedFactor="0.87" vaporized=""/>
    <tripinfo id="NS_84" depart="84.00" departLane="2i_0" departPos="4.10" departSpeed="0.00" departDelay="0.00" arrival="186.00" arrivalLane="3o_0" arrivalPos="492.80" arrivalSpeed="9.00" duration="102.00" routeLength="995.70" waitingTime="11.00" waitingCount="1" stopTime="0.00" timeLoss="24.59" rerouteNo="0" devices="tripinfo_NS_84" vType="car" speedFactor="0.92" vaporized=""/>
    <tripinfo id="NS_95" depart="95.00" departLane="2i_0" departPos="4.10" departSpeed="0.00" departDelay="0.00" arrival="187.00" arrivalLane="3o_0" arrivalPos="492.80" arrivalSpeed="11.54" duration="92.00" routeLength="995.70" waitingTime="6.00" waitingCount="1" stopTime="0.00" timeLoss="32.05" rerouteNo="0" devices="tripinfo_NS_95" vType="car" speedFactor="1.18" vaporized=""/>
    <tripinfo id="EW_93" depart="93.00" departLane="4i_0" departPos="4.10" departSpeed="0.00" departDelay="0.00" arrival="189.00" arrivalLane="1o_0" arrivalPos="492.80" arrivalSpeed="10.13" duration="96.00" routeLength="990.53" waitingTime="7.00" waitingCount="1" stopTime="0.00" timeLoss="20.19" rerouteNo="0" devices="tripinfo_EW_93" vType="car" speedFactor="0.93" vaporized=""/>
    <tripinfo id="NS_96" depart="98.00" departLane="2i_0" departPos="4.10" departSpeed="0.00" departDelay="2.00" arrival="191.00" arrivalLane="1o_0" arrivalPos="492.80" arrivalSpeed="12.40" duration="93.00" routeLength="995.90" waitingTime="5.00" waitingCount="1" stopTime="0.00" timeLoss="31.07" rerouteNo="0" devices="tripinfo_NS_96" vType="car" speedFactor="1.15" vaporized=""/>
    <tripinfo id="NS_109" depart="109.00" departLane="2i_0" departPos="4.10" departSpeed="0.00" departDelay="0.00" arrival="192.00" arrivalLane="3o_0" arrivalPos="492.80" arrivalSpeed="10.35" duration="83.00" routeLength="995.70" waitingTime="0.00" waitingCount="0" stopTime="0.00" timeLoss="12.02" rerouteNo="0" devices="tripinfo_NS_109" vType="car" speedFactor="0.99" vaporized=""/>
    <tripinfo id="EW_129" depart="129.00" departLane="4i_0" departPos="4.10" departSpeed="0.00" departDelay="0.00" arrival="197.00" arrivalLane="1o_0" arrivalPos="492.80" arrivalSpeed="12.90" duration="68.00" routeLength="990.53" waitingTime="0.00" waitingCount="0" stopTime="0.00" timeLoss="7.66" rerouteNo="0" devices="tripinfo_EW_129" vType="car" speedFactor="1.18" vaporized=""/>
    <tripinfo id="SN_97" depart="97.00" departLane="3i_0" departPos="4.10" departSpeed="0.00" departDelay="0.00" arrival="199.00" arrivalLane="4o_0" arrivalPos="492.80" arrivalSpeed="10.64" duration="102.00" routeLength="995.90" waitingTime="14.00" waitingCount="2" stopTime="0.00" timeLoss="31.05" rerouteNo="0" devices="tripinfo_SN_97" vType="car" speedFactor="1.01" vaporized=""/>
    <tripinfo id="SN_129" depart="129.00" departLane="3i_0" departPos="4.10" departSpeed="0.00" departDelay="0.00" arrival="202.00" arrivalLane="2o_0" arrivalPos="492.80" arrivalSpeed="11.57" duration="73.00" routeLength="990.53" waitingTime="0.00" waitingCount="0" stopTime="0.00" timeLoss="8.47" rerouteNo="0" devices="tripinfo_SN_129" vType="car" speedFactor="1.10" vaporized=""/>
    <tripinfo id="NS_126" depart="126.00" departLane="2i_0" departPos="4.10" departSpeed="0.00" departDelay="0.00" arrival="209.00" arrivalLane="1o_0" arrivalPos="492.80" arrivalSpeed="10.73" duration="83.00" routeLength="995.90" waitingTime="0.00" waitingCount="0" stopTime="0.00" timeLoss="9.92" rerouteNo="0" devices="tripinfo_NS_126" vType="car" speedFactor="0.97" vaporized=""/>
    <tripinfo id="WE_125" depart="126.00" departLane="1i_0" departPos="4.10" departSpeed="0.00" departDelay="1.00" arrival="211.00" arrivalLane="4o_0" arrivalPos="492.80" arrivalSpeed="10.97" duration="85.00" routeLength="995.70" waitingTime="1.00" waitingCount="1" stopTime="0.00" timeLoss="15.60" rerouteNo="0" devices="tripinfo_WE_125" vType="car" speedFactor="1.02" vaporized=""/>
    <tripinfo id="NS_131" depart="131.00" departLane="2i_0" departPos="4.10" departSpeed="0.00" departDelay="0.00" arrival="214.00" arrivalLane="4o_0" arrivalPos="492.80" arrivalSpeed="10.96" duration="83.00" routeLength="990.53" waitingTime="3.00" waitingCount="1" stopTime="0.00" timeLoss="13.96" rerouteNo="0" devices="tripinfo_NS_131" vType="car" speedFactor="1.03" vaporized=""/>
    <tripinfo id="EW_131" depart="131.00" departLane="4i_0" departPos="4.10" departSpeed="0.00" departDelay="0.00" arrival="220.00" arrivalLane="3o_0" arrivalPos="492.80" arrivalSpeed="9.12" duration="89.00" routeLength="995.90" waitingTime="1.00" waitingCount="1" stopTime="0.00" timeLoss="10.38" rerouteNo="0" devices="tripinfo_EW_131" vType="car" speedFactor="0.90" vaporized=""/>
    <tripinfo id="SN_148" depart="148.00" departLane="3i_0" departPos="4.10" departSpeed="0.00" departDelay="0.00" arrival="221.00" arrivalLane="4o_0" arrivalPos="492.80" arrivalSpeed="11.50" duration="73.00" routeLength="995.90" waitingTime="0.00" waitingCount="0" stopTime="0.00" timeLoss="7.94" rerouteNo="0" devices="tripinfo_SN_148" vType="car" speedFactor="1.09" vaporized=""/>
    <tripinfo id="NS_140" depart="140.00" departLane="2i_0" departPos="4.10" departSpeed="0.00" departDelay="0.00" arrival="222.00" arrivalLane="3o_0" arrivalPos="492.80" arrivalSpeed="11.48" duration="82.00" routeLength="995.70" waitingTime="0.00" waitingCount="0" stopTime="0.00" timeLoss="13.23" rerouteNo="0" devices="tripinfo_NS_140" vType="car" speedFactor="1.04" vaporized=""/>
    <tripinfo id="EW_133" depart="134.00" departLane="4i_0" departPos="4.10" departSpeed="0.00" departDelay="1.00" arrival="228.00" arrivalLane="3o_0" arrivalPos="492.80" arrivalSpeed="9.46" duration="94.00" routeLength="995.90" waitingTime="4.00" waitingCount="1" stopTime="0.00" timeLoss="20.12" rerouteNo="0" devices="tripinfo_EW_133" vType="car" speedFactor="0.96" vaporized=""/>
    <tripinfo id="EW_138" depart="138.00" departLane="4i_0" departPos="4.10" departSpeed="0.00" departDelay="0.00" arrival="228.00" arrivalLane="1o_0" arrivalPos="492.80" arrivalSpeed="10.92" duration="90.00" routeLength="990.53" waitingTime="3.00" waitingCount="1" stopTime="0.00" timeLoss="24.91" rerouteNo="0" devices="tripinfo_EW_138" vType="car" speedFactor="1.09" vaporized=""/>
    <tripinfo id="EW_141" depart="141.00" departLane="4i_0" departPos="4.10" departSpeed="0.00" departDelay="0.00" arrival="233.00" arrivalLane="1o_0" arrivalPos="492.80" arrivalSpeed="11.40" duration="92.00" routeLength="990.53" waitingTime="2.00" waitingCount="1" stopTime="0.00" timeLoss="24.67" rerouteNo="0" devices="tripinfo_EW_141" vType="car" speedFactor="1.04" vaporized=""/>
    <tripinfo id="SN_150" depart="151.00" departLane="3i_0" departPos="4.10" departSpeed="0.00" departDelay="1.00" arrival="238.00" arrivalLane="4o_0" arrivalPos="492.80" arrivalSpeed="9.64" duration="87.00" routeLength="995.90" waitingTime="0.00" waitingCount="0" stopTime="0.00" timeLoss="8.25" rerouteNo="0" devices="tripinfo_SN_150" vType="car" speedFactor="0.90" vaporized=""/>
    <tripinfo id="SN_160" depart="160.00" departLane="3i_0" departPos="10.10" departSpeed="0.00" departDelay="0.00" arrival="242.00" arrivalLane="2o_0" arrivalPos="492.80" arrivalSpeed="10.97" duration="82.00" routeLength="984.53" waitingTime="0.00" waitingCount="0" stopTime="0.00" timeLoss="11.98" rerouteNo="0" devices="tripinfo_SN_160" vType="truck" speedFactor="1.01" vaporized=""/>
    <tripinfo id="EW_150" depart="150.00" departLane="4i_0" departPos="10.10" departSpeed="0.00" departDelay="0.00" arrival="243.00" arrivalLane="1o_0" arrivalPos="492.80" arrivalSpeed="10.61" duration="93.00" routeLength="984.53" waitingTime="1.00" waitingCount="1" stopTime="0.00" timeLoss="22.99" rerouteNo="0" devices="tripinfo_EW_150" vType="truck" speedFactor="1.00" vaporized=""/>
    <tripinfo id="NS_153" depart="153.00" departLane="2i_0" departPos="4.10" departSpeed="0.00" departDelay="0.00" arrival="244.00" arrivalLane="4o_0" arrivalPos="492.80" arrivalSpeed="8.37" duration="91.00" routeLength="990.53" waitingTime="0.00" waitingCount="0" stopTime="0.00" timeLoss="8.65" rerouteNo="0" devices="tripinfo_NS_153" vType="car" speedFactor="0.85" vaporized=""/>
    <tripinfo id="WE_152" depart="152.00" departLane="1i_0" departPos="4.10" departSpeed="0.00" departDelay="0.00" arrival="246.00" arrivalLane="4o_0" arrivalPos="492.80" arrivalSpeed="9.74" duration="94.00" routeLength="995.70" waitingTime="0.00" waitingCount="0" stopTime="0.00" timeLoss="13.15" rerouteNo="0" devices="tripinfo_WE_152" vType="car" speedFactor="0.88" vaporized=""/>
    <tripinfo id="EW_163" depart="165.00" departLane="4i_0" departPos="4.10" departSpeed="0.00" departDelay="2.00" arrival="247.00" arrivalLane="1o_0" arrivalPos="492.80" arrivalSpeed="9.99" duration="82.00" routeLength="990.53" waitingTime="0.00" waitingCount="0" stopTime="0.00" timeLoss="11.06" rerouteNo="0" devices="tripinfo_EW_163" vType="car" speedFactor="1.00" vaporized=""/>
    <tripinfo id="WE_162" depart="163.00" departLane="1i_0" departPos="4.10" departSpeed="0.00" departDelay="1.00" arrival="248.00" arrivalLane="4o_0" arrivalPos="492.80" arrivalSpeed="11.76" duration="85.00" routeLength="995.70" waitingTime="0.00" waitingCount="0" stopTime="0.00" timeLoss="20.03" rerouteNo="0" devices="tripinfo_WE_162" vType="car" speedFactor="1.10" vaporized=""/>
    <tripinfo id="WE_153" depart="156.00" departLane="1i_0" departPos="10.10" departSpeed="0.00" departDelay="3.00" arrival="250.00" arrivalLane="2o_0" arrivalPos="492.80" arrivalSpeed="9.79" duration="94.00" routeLength="989.90" waitingTime="0.00" waitingCount="0" stopTime="0.00" timeLoss="17.44" rerouteNo="0" devices="tripinfo_WE_153" vType="truck" speedFactor="0.93" vaporized=""/>
    <tripinfo id="WE_158" depart="160.00" departLane="1i_0" departPos="4.10" departSpeed="0.00" departDelay="2.00" arrival="252.00" arrivalLane="2o_0" arrivalPos="492.80" arrivalSpeed="12.26" duration="92.00" routeLength="995.90" waitingTime="0.00" waitingCount="0" stopTime="0.00" timeLoss="31.22" rerouteNo="0" devices="tripinfo_WE_158" vType="car" speedFactor="1.17" vaporized=""/>
    <tripinfo id="WE_163" depart="165.00" departLane="1i_0" departPos="4.10" departSpeed="0.00" departDelay="2.00" arrival="254.00" arrivalLane="2o_0" arrivalPos="492.80" arrivalSpeed="10.14" duration="89.00" routeLength="995.90" waitingTime="0.00" waitingCount="0" stopTime="0.00" timeLoss="18.27" rerouteNo="0" devices="tripinfo_WE_163" vType="car" speedFactor="1.00" vaporized=""/>
    <tripinfo id="WE_174" depart="174.00" departLane="1i_0" departPos="4.10" departSpeed="0.00" departDelay="0.00" arrival="256.00" arrivalLane="2o_0" arrivalPos="492.80" arrivalSpeed="11.94" duration="82.00" routeLength="995.90" waitingTime="0.00" waitingCount="0" stopTime="0.00" timeLoss="18.23" rerouteNo="0" devices="tripinfo_WE_174" vType="car" speedFactor="1.12" vaporized=""/>
    <tripinfo id="WE_183" depart="183.00" departLane="1i_0" departPos="4.10" departSpeed="0.00" departDelay="0.00" arrival="263.00" arrivalLane="3o_0" arrivalPos="492.80" arrivalSpeed="10.00" duration="80.00" routeLength="990.53" waitingTime="0.00" waitingCount="0" stopTime="0.00" timeLoss="8.81" rerouteNo="0" devices="tripinfo_WE_183" vType="car" speedFactor="0.99" vaporized=""/>
    <tripinfo id="EW_170" depart="170.00" departLane="4i_0" departPos="10.10" departSpeed="0.00" departDelay="0.00" arrival="270.00" arrivalLane="3o_0" arrivalPos="492.80" arrivalSpeed="10.76" duration="100.00" routeLength="989.90" waitingTime="9.00" waitingCount="1" stopTime="0.00" timeLoss="29.83" rerouteNo="0" devices="tripinfo_EW_170" vType="truck" speedFactor="1.01" vaporized=""/>
    <tripinfo id="SN_165" depart="165.00" departLane="3i_0" departPos="4.10" departSpeed="0.00" departDelay="0.00" arrival="273.00" arrivalLane="2o_0" arrivalPos="492.80" arrivalSpeed="8.90" duration="108.00" routeLength="990.53" waitingTime="15.00" waitingCount="1" stopTime="0.00" timeLoss="29.17" rerouteNo="0" devices="tripinfo_SN_165" vType="car" speedFactor="0.90" vaporized=""/>
    <tripinfo id="WE_184" depart="186.00" departLane="1i_0" departPos="4.10" departSpeed="0.00" departDelay="2.00" arrival="278.00" arrivalLane="2o_0" arrivalPos="492.80" arrivalSpeed="9.96" duration="92.00" routeLength="995.90" waitingTime="0.00" waitingCount="0" stopTime="0.00" timeLoss="16.77" rerouteNo="0" devices="tripinfo_WE_184" vType="car" speedFactor="0.94" vaporized=""/>
    <tripinfo id="SN_168" depart="168.00" departLane="3i_0" departPos="4.10" departSpeed="0.00" departDelay="0.00" arrival="282.00" arrivalLane="4o_0" arrivalPos="492.80" arrivalSpeed="11.86" duration="114.00" routeLength="995.90" waitingTime="29.00" waitingCount="2" stopTime="0.00" timeLoss="51.57" rerouteNo="0" devices="tripinfo_SN_168" vType="car" speedFactor="1.14" vaporized=""/>
    <tripinfo id="EW_171" depart="174.00" departLane="4i_0" departPos="4.10" departSpeed="0.00" departDelay="3.00" arrival="289.00" arrivalLane="1o_0" arrivalPos="492.80" arrivalSpeed="10.67" duration="115.00" routeLength="990.53" waitingTime="19.00" waitingCount="2" stopTime="0.00" timeLoss="41.72" rerouteNo="0" devices="tripinfo_EW_171" vType="car" speedFactor="0.97" vaporized=""/>
    <tripinfo id="WE_206" depart="206.00" departLane="1i_0" departPos="4.10" departSpeed="0.00" departDelay="0.00" arrival="289.00" arrivalLane="2o_0" arrivalPos="492.80" arrivalSpeed="10.44" duration="83.00" routeLength="995.90" waitingTime="1.00" waitingCount="1" stopTime="0.00" timeLoss="12.98" rerouteNo="0" devices="tripinfo_WE_206" vType="car" speedFactor="1.02" vaporized=""/>
    <tripinfo id="SN_171" depart="171.00" departLane="3i_0" departPos="4.10" departSpeed="0.00" departDelay="0.00" arrival="291.00" arrivalLane="1o_0" arrivalPos="492.80" arrivalSpeed="11.47" duration="120.00" routeLength="995.70" waitingTime="29.00" waitingCount="3" stopTime="0.00" timeLoss="54.47" rerouteNo="0" devices="tripinfo_SN_171" vType="car" speedFactor="1.08" vaporized=""/>
    <tripinfo id="EW_182" depart="182.00" departLane="4i_0" departPos="4.10" departSpeed="0.00" departDelay="0.00" arrival="291.00" arrivalLane="3o_0" arrivalPos="492.80" arrivalSpeed="10.07" duration="109.00" routeLength="995.90" waitingTime="15.00" waitingCount="2" stopTime="0.00" timeLoss="39.15" rerouteNo="0" devices="tripinfo_EW_182" vType="car" speedFactor="1.02" vaporized=""/>
    <tripinfo id="NS_212" depart="212.00" departLane="2i_0" departPos="4.10" departSpeed="0.00" departDelay="0.00" arrival="297.00" arrivalLane="1o_0" arrivalPos="492.80" arrivalSpeed="11.16" duration="85.00" routeLength="995.90" waitingTime="2.00" waitingCount="1" stopTime="0.00" timeLoss="17.90" rerouteNo="0" devices="tripinfo_NS_212" vType="car" speedFactor="1.06" vaporized=""/>
    <tripinfo id="NS_209" depart="209.00" departLane="2i_0" departPos="4.10" departSpeed="0.00" departDelay="0.00" arrival="299.00" arrivalLane="3o_0" arrivalPos="492.80" arrivalSpeed="9.96" duration="90.00" routeLength="995.70" waitingTime="1.00" waitingCount="1" stopTime="0.00" timeLoss="17.40" rerouteNo="0" devices="tripinfo_NS_209" vType="car" speedFactor="0.97" vaporized=""/>
    <tripinfo id="SN_200" depart="200.00" departLane="3i_0" departPos="4.10" departSpeed="0.00" departDelay="0.00" arrival="301.00" arrivalLane="2o_0" arrivalPos="492.80" arrivalSpeed="9.90" duration="101.00" routeLength="990.53" waitingTime="2.00" waitingCount="1" stopTime="0.00" timeLoss="23.86" rerouteNo="0" devices="tripinfo_SN_200" vType="car" speedFactor="0.91" vaporized=""/>
    <tripinfo id="WE_209" depart="209.00" departLane="1i_0" departPos="4.10" departSpeed="0.00" departDelay="0.00" arrival="306.00" arrivalLane="4o_0" arrivalPos="492.80" arrivalSpeed="10.99" duration="97.00" routeLength="995.70" waitingTime="11.00" waitingCount="1" stopTime="0.00" timeLoss="27.52" rerouteNo="0" devices="tripinfo_WE_209" vType="car" speedFactor="1.02" vaporized=""/>
    <tripinfo id="NS_214" depart="215.00" departLane="2i_0" departPos="4.10" departSpeed="0.00" departDelay="1.00" arrival="308.00" arrivalLane="3o_0" arrivalPos="492.80" arrivalSpeed="10.42" duration="93.00" routeLength="995.70" waitingTime="0.00" waitingCount="0" stopTime="0.00" timeLoss="18.45" rerouteNo="0" devices="tripinfo_NS_214" vType="car" speedFactor="0.96" vaporized=""/>
    <tripinfo id="EW_192" depart="192.00" departLane="4i_0" departPos="4.10" departSpeed="0.00" departDelay="0.00" arrival="309.00" arrivalLane="2o_0" arrivalPos="492.80" arrivalSpeed="8.96" duration="117.00" routeLength="995.70" waitingTime="11.00" waitingCount="2" stopTime="0.00" timeLoss="36.85" rerouteNo="0" devices="tripinfo_EW_192" vType="car" speedFactor="0.88" vaporized=""/>
    <tripinfo id="SN_201" depart="202.00" departLane="3i_0" departPos="4.10" departSpeed="0.00" departDelay="1.00" arrival="310.00" arrivalLane="1o_0" arrivalPos="492.80" arrivalSpeed="10.76" duration="108.00" routeLength="995.70" waitingTime="8.00" waitingCount="3" stopTime="0.00" timeLoss="39.87" rerouteNo="0" devices="tripinfo_SN_201" vType="car" speedFactor="1.04" vaporized=""/>
    <tripinfo id="NS_223" depart="223.00" departLane="2i_0" departPos="4.10" departSpeed="0.00" departDelay="0.00" arrival="310.00" arrivalLane="3o_0" arrivalPos="492.80" arrivalSpeed="10.60" duration="87.00" routeLength="995.70" waitingTime="0.00" waitingCount="0" stopTime="0.00" timeLoss="14.24" rerouteNo="0" devices="tripinfo_NS_223" vType="car" speedFactor="0.98" vaporized=""/>
    <tripinfo id="EW_195" depart="195.00" departLane="4i_0" departPos="4.10" departSpeed="0.00" departDelay="0.00" arrival="315.00" arrivalLane="2o_0" arrivalPos="492.80" arrivalSpeed="9.38" duration="120.00" routeLength="995.70" waitingTime="11.00" waitingCount="3" stopTime="0.00" timeLoss="42.20" rerouteNo="0" devices="tripinfo_EW_195" vType="car" speedFactor="0.91" vaporized=""/>
    <tripinfo id="WE_211" depart="212.00" departLane="1i_0" departPos="4.10" departSpeed="0.00" departDelay="1.00" arrival="318.00" arrivalLane="2o_0" arrivalPos="492.80" arrivalSpeed="9.54" duration="106.00" routeLength="995.90" waitingTime="12.00" waitingCount="3" stopTime="0.00" timeLoss="30.51" rerouteNo="0" devices="tripinfo_WE_211" vType="car" speedFactor="0.94" vaporized=""/>