<?xml version="1.0" encoding="UTF-8"?>

<!-- generated on 2024-05-05 16:21:06 by Eclipse SUMO sumo Version 1.19.0
<configuration xmlns:xsi="http://www.w3.org/2001/XMLSchema-instance" xsi:noNamespaceSchemaLocation="http://sumo.dlr.de/xsd/sumoConfiguration.xsd">

    <input>
        <net-file value="twoone.net.xml"/>
        <route-files value="route_gen.rou.xml"/>
    </input>

    <output>
        <tripinfo-output value="tripinfo_epi135.xml"/>
    </output>

    <report>
        <no-warnings value="true"/>
    </report>

    <traci_server>
        <remote-port value="38847"/>
    </traci_server>

</configuration>
-->

<tripinfos xmlns:xsi="http://www.w3.org/2001/XMLSchema-instance" xsi:noNamespaceSchemaLocation="http://sumo.dlr.de/xsd/tripinfo_file.xsd">
    <tripinfo id="WE_0" depart="0.00" departLane="1i_0" departPos="4.10" departSpeed="0.00" departDelay="0.00" arrival="74.00" arrivalLane="3o_0" arrivalPos="492.80" arrivalSpeed="10.96" duration="74.00" routeLength="990.53" waitingTime="0.00" waitingCount="0" stopTime="0.00" timeLoss="7.22" rerouteNo="0" devices="tripinfo_WE_0" vType="car" speedFactor="1.06" vaporized=""/>
    <tripinfo id="SN_6" depart="6.00" departLane="3i_0" departPos="4.10" departSpeed="0.00" departDelay="0.00" arrival="84.00" arrivalLane="2o_0" arrivalPos="492.80" arrivalSpeed="11.20" duration="78.00" routeLength="990.53" waitingTime="3.00" waitingCount="1" stopTime="0.00" timeLoss="12.31" rerouteNo="0" devices="tripinfo_SN_6" vType="car" speedFactor="1.08" vaporized=""/>
    <tripinfo id="NS_13" depart="13.00" departLane="2i_0" departPos="4.10" departSpeed="0.00" departDelay="0.00" arrival="91.00" arrivalLane="1o_0" arrivalPos="492.80" arrivalSpeed="10.50" duration="78.00" routeLength="995.90" waitingTime="0.00" waitingCount="0" stopTime="0.00" timeLoss="9.59" rerouteNo="0" devices="tripinfo_NS_13" vType="car" speedFactor="1.05" vaporized=""/>
    <tripinfo id="WE_12" depart="12.00" departLane="1i_0" departPos="4.10" departSpeed="0.00" departDelay="0.00" arrival="92.00" arrivalLane="3o_0" arrivalPos="492.80" arrivalSpeed="10.75" duration="80.00" routeLength="990.53" waitingTime="1.00" waitingCount="1" stopTime="0.00" timeLoss="11.24" rerouteNo="0" devices="tripinfo_WE_12" vType="car" speedFactor="1.03" vaporized=""/>
    <tripinfo id="EW_5" depart="5.00" departLane="4i_0" departPos="4.10" departSpeed="0.00" departDelay="0.00" arrival="93.00" arrivalLane="2o_0" arrivalPos="492.80" arrivalSpeed="9.14" duration="88.00" routeLength="995.70" waitingTime="0.00" waitingCount="0" stopTime="0.00" timeLoss="11.87" rerouteNo="0" devices="tripinfo_EW_5" vType="car" speedFactor="0.94" vaporized=""/>
    <tripinfo id="EW_6" depart="8.00" departLane="4i_0" departPos="4.10" departSpeed="0.00" departDelay="2.00" arrival="94.00" arrivalLane="2o_0" arrivalPos="492.80" arrivalSpeed="10.94" duration="86.00" routeLength="995.70" waitingTime="0.00" waitingCount="0" stopTime="0.00" timeLoss="16.01" rerouteNo="0" devices="tripinfo_EW_6" vType="car" speedFactor="1.01" vaporized=""/>
    <tripinfo id="EW_18" depart="18.00" departLane="4i_0" departPos="4.10" departSpeed="0.00" departDelay="0.00" arrival="95.00" arrivalLane="3o_0" arrivalPos="492.80" arrivalSpeed="11.91" duration="77.00" routeLength="995.90" waitingTime="1.00" waitingCount="1" stopTime="0.00" timeLoss="11.45" rerouteNo="0" devices="tripinfo_EW_18" vType="car" speedFactor="1.09" vaporized=""/>
    <tripinfo id="SN_12" depart="12.00" departLane="3i_0" departPos="4.10" departSpeed="0.00" departDelay="0.00" arrival="113.00" arrivalLane="1o_0" arrivalPos="492.80" arrivalSpeed="8.33" duration="101.00" routeLength="995.70" waitingTime="0.00" waitingCount="0" stopTime="0.00" timeLoss="15.35" rerouteNo="0" devices="tripinfo_SN_12" vType="car" speedFactor="0.83" vaporized=""/>
    <tripinfo id="NS_16" depart="16.00" departLane="2i_0" departPos="4.10" departSpeed="0.00" departDelay="0.00" arrival="114.00" arrivalLane="1o_0" arrivalPos="492.80" arrivalSpeed="9.27" duration="98.00" routeLength="995.90" waitingTime="6.00" waitingCount="1" stopTime="0.00" timeLoss="22.65" rerouteNo="0" devices="tripinfo_NS_16" vType="car" speedFactor="0.94" vaporized=""/>
    <tripinfo id="WE_30" depart="30.00" departLane="1i_0" departPos="4.10" departSpeed="0.00" departDelay="0.00" arrival="115.00" arrivalLane="3o_0" arrivalPos="492.80" arrivalSpeed="9.97" duration="85.00" routeLength="990.53" waitingTime="0.00" waitingCount="0" stopTime="0.00" timeLoss="9.30" rerouteNo="0" devices="tripinfo_WE_30" vType="car" speedFactor="0.93" vaporized=""/>
    <tripinfo id="WE_15" depart="15.00" departLane="1i_0" departPos="4.10" departSpeed="0.00" departDelay="0.00" arrival="116.00" arrivalLane="4o_0" arrivalPos="492.80" arrivalSpeed="9.64" duration="101.00" routeLength="995.70" waitingTime="6.00" waitingCount="1" stopTime="0.00" timeLoss="20.43" rerouteNo="0" devices="tripinfo_WE_15" vType="car" speedFactor="0.89" vaporized=""/>
    <tripinfo id="EW_23" depart="23.00" departLane="4i_0" departPos="4.10" departSpeed="0.00" departDelay="0.00" arrival="116.00" arrivalLane="1o_0" arrivalPos="492.80" arrivalSpeed="10.92" duration="93.00" routeLength="990.53" waitingTime="5.00" waitingCount="1" stopTime="0.00" timeLoss="25.53" rerouteNo="0" devices="tripinfo_EW_23" vType="car" speedFactor="1.05" vaporized=""/>
    <tripinfo id="EW_25" depart="26.00" departLane="4i_0" departPos="4.10" departSpeed="0.00" departDelay="1.00" arrival="117.00" arrivalLane="3o_0" arrivalPos="492.80" arrivalSpeed="11.40" duration="91.00" routeLength="995.90" waitingTime="4.00" waitingCount="1" stopTime="0.00" timeLoss="27.71" rerouteNo="0" devices="tripinfo_EW_25" vType="car" speedFactor="1.12" vaporized=""/>
    <tripinfo id="SN_20" depart="20.00" departLane="3i_0" departPos="4.10" departSpeed="0.00" departDelay="0.00" arrival="119.00" arrivalLane="1o_0" arrivalPos="492.80" arrivalSpeed="11.22" duration="99.00" routeLength="995.70" waitingTime="6.00" waitingCount="2" stopTime="0.00" timeLoss="29.47" rerouteNo="0" devices="tripinfo_SN_20" vType="car" speedFactor="1.03" vaporized=""/>
    <tripinfo id="WE_34" depart="34.00" departLane="1i_0" departPos="4.10" departSpeed="0.00" departDelay="0.00" arrival="120.00" arrivalLane="2o_0" arrivalPos="492.80" arrivalSpeed="10.08" duration="86.00" routeLength="995.90" waitingTime="0.00" waitingCount="0" stopTime="0.00" timeLoss="10.49" rerouteNo="0" devices="tripinfo_WE_34" vType="car" speedFactor="0.94" vaporized=""/>
    <tripinfo id="SN_16" depart="16.00" departLane="3i_0" departPos="4.10" departSpeed="0.00" departDelay="0.00" arrival="121.00" arrivalLane="4o_0" arrivalPos="492.80" arrivalSpeed="9.42" duration="105.00" routeLength="995.90" waitingTime="5.00" waitingCount="1" stopTime="0.00" timeLoss="21.89" rerouteNo="0" devices="tripinfo_SN_16" vType="car" speedFactor="0.86" vaporized=""/>
    <tripinfo id="SN_26" depart="26.00" departLane="3i_0" departPos="4.10" departSpeed="0.00" departDelay="0.00" arrival="124.00" arrivalLane="2o_0" arrivalPos="492.80" arrivalSpeed="10.79" duration="98.00" routeLength="990.53" waitingTime="4.00" waitingCount="2" stopTime="0.00" timeLoss="26.67" rerouteNo="0" devices="tripinfo_SN_26" vType="car" speedFactor="0.99" vaporized=""/>
    <tripinfo id="NS_50" depart="50.00" departLane="2i_0" departPos="4.10" departSpeed="0.00" departDelay="0.00" arrival="129.00" arrivalLane="1o_0" arrivalPos="492.80" arrivalSpeed="10.99" duration="79.00" routeLength="995.90" waitingTime="0.00" waitingCount="0" stopTime="0.00" timeLoss="8.20" rerouteNo="0" devices="tripinfo_NS_50" vType="car" speedFactor="1.01" vaporized=""/>
    <tripinfo id="NS_31" depart="31.00" departLane="2i_0" departPos="4.10" departSpeed="0.00" departDelay="0.00" arrival="131.00" arrivalLane="3o_0" arrivalPos="492.80" arrivalSpeed="9.00" duration="100.00" routeLength="995.70" waitingTime="6.00" waitingCount="1" stopTime="0.00" timeLoss="18.87" rerouteNo="0" devices="tripinfo_NS_31" vType="car" speedFactor="0.88" vaporized=""/>
    <tripinfo id="SN_31" depart="31.00" departLane="3i_0" departPos="4.10" departSpeed="0.00" departDelay="0.00" arrival="131.00" arrivalLane="4o_0" arrivalPos="492.80" arrivalSpeed="9.80" duration="100.00" routeLength="995.90" waitingTime="0.00" waitingCount="0" stopTime="0.00" timeLoss="24.13" rerouteNo="0" devices="tripinfo_SN_31" vType="car" speedFactor="0.94" vaporized=""/>
    <tripinfo id="EW_38" depart="38.00" departLane="4i_0" departPos="4.10" departSpeed="0.00" departDelay="0.00" arrival="131.00" arrivalLane="1o_0" arrivalPos="492.80" arrivalSpeed="10.57" duration="93.00" routeLength="990.53" waitingTime="9.00" waitingCount="2" stopTime="0.00" timeLoss="23.97" rerouteNo="0" devices="tripinfo_EW_38" vType="car" speedFactor="1.02" vaporized=""/>
    <tripinfo id="EW_36" depart="36.00" departLane="4i_0" departPos="4.10" departSpeed="0.00" departDelay="0.00" arrival="132.00" arrivalLane="3o_0" arrivalPos="492.80" arrivalSpeed="11.11" duration="96.00" routeLength="995.90" waitingTime="7.00" waitingCount="1" stopTime="0.00" timeLoss="34.99" rerouteNo="0" devices="tripinfo_EW_36" vType="car" speedFactor="1.16" vaporized=""/>
    <tripinfo id="SN_51" depart="51.00" departLane="3i_0" departPos="4.10" departSpeed="0.00" departDelay="0.00" arrival="138.00" arrivalLane="1o_0" arrivalPos="492.80" arrivalSpeed="9.91" duration="87.00" routeLength="995.70" waitingTime="0.00" waitingCount="0" stopTime="0.00" timeLoss="13.79" rerouteNo="0" devices="tripinfo_SN_51" vType="car" speedFactor="0.97" vaporized=""/>
    <tripinfo id="EW_55" depart="55.00" departLane="4i_0" departPos="4.10" departSpeed="0.00" departDelay="0.00" arrival="144.00" arrivalLane="1o_0" arrivalPos="492.80" arrivalSpeed="8.64" duration="89.00" routeLength="990.53" waitingTime="0.00" waitingCount="0" stopTime="0.00" timeLoss="9.83" rerouteNo="0" devices="tripinfo_EW_55" vType="car" speedFactor="0.89" vaporized=""/>
    <tripinfo id="WE_59" depart="59.00" departLane="1i_0" departPos="10.10" departSpeed="0.00" departDelay="0.00" arrival="148.00" arrivalLane="3o_0" arrivalPos="492.80" arrivalSpeed="9.96" duration="89.00" routeLength="984.53" waitingTime="0.00" waitingCount="0" stopTime="0.00" timeLoss="11.96" rerouteNo="0" devices="tripinfo_WE_59" vType="truck" speedFactor="0.91" vaporized=""/>
    <tripinfo id="SN_64" depart="64.00" departLane="3i_0" departPos="4.10" departSpeed="0.00" departDelay="0.00" arrival="151.00" arrivalLane="2o_0" arrivalPos="492.80" arrivalSpeed="8.94" duration="87.00" routeLength="990.53" waitingTime="0.00" waitingCount="0" stopTime="0.00" timeLoss="9.73" rerouteNo="0" devices="tripinfo_SN_64" vType="car" speedFactor="0.92" vaporized=""/>
    <tripinfo id="NS_62" depart="62.00" departLane="2i_0" departPos="4.10" departSpeed="0.00" departDelay="0.00" arrival="152.00" arrivalLane="1o_0" arrivalPos="492.80" arrivalSpeed="9.43" duration="90.00" routeLength="995.90" waitingTime="0.00" waitingCount="0" stopTime="0.00" timeLoss="8.68" rerouteNo="0" devices="tripinfo_NS_62" vType="car" speedFactor="0.87" vaporized=""/>
    <tripinfo id="EW_68" depart="68.00" departLane="4i_0" departPos="4.10" departSpeed="0.00" departDelay="0.00" arrival="152.00" arrivalLane="3o_0" arrivalPos="492.80" arrivalSpeed="9.50" duration="84.00" routeLength="995.90" waitingTime="0.00" waitingCount="0" stopTime="0.00" timeLoss="9.04" rerouteNo="0" devices="tripinfo_EW_68" vType="car" speedFactor="0.95" vaporized=""/>
    <tripinfo id="WE_70" depart="70.00" departLane="1i_0" departPos="4.10" departSpeed="0.00" departDelay="0.00" arrival="153.00" arrivalLane="3o_0" arrivalPos="492.80" arrivalSpeed="12.19" duration="83.00" routeLength="990.53" waitingTime="0.00" waitingCount="0" stopTime="0.00" timeLoss="21.01" rerouteNo="0" devices="tripinfo_WE_70" vType="car" speedFactor="1.13" vaporized=""/>
    <tripinfo id="WE_84" depart="84.00" departLane="1i_0" departPos="4.10" departSpeed="0.00" departDelay="0.00" arrival="153.00" arrivalLane="2o_0" arrivalPos="492.80" arrivalSpeed="11.82" duration="69.00" routeLength="995.90" waitingTime="0.00" waitingCount="0" stopTime="0.00" timeLoss="9.20" rerouteNo="0" devices="tripinfo_WE_84" vType="car" speedFactor="1.18" vaporized=""/>
    <tripinfo id="NS_72" depart="72.00" departLane="2i_0" departPos="4.10" departSpeed="0.00" departDelay="0.00" arrival="154.00" arrivalLane="1o_0" arrivalPos="492.80" arrivalSpeed="12.54" duration="82.00" routeLength="995.90" waitingTime="0.00" waitingCount="0" stopTime="0.00" timeLoss="21.19" rerouteNo="0" devices="tripinfo_NS_72" vType="car" speedFactor="1.18" vaporized=""/>
    <tripinfo id="WE_76" depart="76.00" departLane="1i_0" departPos="4.10" departSpeed="0.00" departDelay="0.00" arrival="155.00" arrivalLane="3o_0" arrivalPos="492.80" arrivalSpeed="10.22" duration="79.00" routeLength="990.53" waitingTime="0.00" waitingCount="0" stopTime="0.00" timeLoss="8.97" rerouteNo="0" devices="tripinfo_WE_76" vType="car" speedFactor="1.01" vaporized=""/>
    <tripinfo id="WE_80" depart="80.00" departLane="1i_0" departPos="4.10" departSpeed="0.00" departDelay="0.00" arrival="158.00" arrivalLane="3o_0" arrivalPos="492.80" arrivalSpeed="10.92" duration="78.00" routeLength="990.53" waitingTime="0.00" waitingCount="0" stopTime="0.00" timeLoss="8.20" rerouteNo="0" devices="tripinfo_WE_80" vType="car" speedFactor="1.02" vaporized=""/>
    <tripinfo id="WE_88" depart="88.00" departLane="1i_0" departPos="4.10" departSpeed="0.00" departDelay="0.00" arrival="165.00" arrivalLane="3o_0" arrivalPos="492.80" arrivalSpeed="10.35" duration="77.00" routeLength="990.53" waitingTime="0.00" waitingCount="0" stopTime="0.00" timeLoss="8.87" rerouteNo="0" devices="tripinfo_WE_88" vType="car" speedFactor="1.03" vaporized=""/>
    <tripinfo id="NS_74" depart="75.00" departLane="2i_0" departPos="4.10" departSpeed="0.00" departDelay="1.00" arrival="167.00" arrivalLane="3o_0" arrivalPos="492.80" arrivalSpeed="12.58" duration="92.00" routeLength="995.70" waitingTime="13.00" waitingCount="1" stopTime="0.00" timeLoss="30.31" rerouteNo="0" devices="tripinfo_NS_74" vType="car" speedFactor="1.15" vaporized=""/>
    <tripinfo id="NS_77" depart="78.00" departLane="2i_0" departPos="4.10" departSpeed="0.00" departDelay="1.00" arrival="172.00" arrivalLane="1o_0" arrivalPos="492.80" arrivalSpeed="11.03" duration="94.00" routeLength="995.90" waitingTime="8.00" waitingCount="1" stopTime="0.00" timeLoss="22.92" rerouteNo="0" devices="tripinfo_NS_77" vType="car" speedFactor="0.99" vaporized=""/>
    <tripinfo id="NS_86" depart="86.00" departLane="2i_0" departPos="4.10" departSpeed="0.00" departDelay="0.00" arrival="178.00" arrivalLane="4o_0" arrivalPos="492.80" arrivalSpeed="9.98" duration="92.00" routeLength="990.53" waitingTime="0.00" waitingCount="0" stopTime="0.00" timeLoss="13.79" rerouteNo="0" devices="tripinfo_NS_86" vType="car" speedFactor="0.90" vaporized=""/>
    <tripinfo id="WE_109" depart="109.00" departLane="1i_0" departPos="10.10" departSpeed="0.00" departDelay="0.00" arrival="190.00" arrivalLane="2o_0" arrivalPos="492.80" arrivalSpeed="11.12" duration="81.00" routeLength="989.90" waitingTime="0.00" waitingCount="0" stopTime="0.00" timeLoss="11.37" rerouteNo="0" devices="tripinfo_WE_109" vType="truck" speedFactor="1.02" vaporized=""/>
    <tripinfo id="NS_113" depart="113.00" departLane="2i_0" departPos="4.10" departSpeed="0.00" departDelay="0.00" arrival="192.00" arrivalLane="1o_0" arrivalPos="492.80" arrivalSpeed="9.83" duration="79.00" routeLength="995.90" waitingTime="0.00" waitingCount="0" stopTime="0.00" timeLoss="7.80" rerouteNo="0" devices="tripinfo_NS_113" vType="car" speedFactor="1.00" vaporized=""/>
    <tripinfo id="EW_92" depart="92.00" departLane="4i_0" departPos="4.10" departSpeed="0.00" departDelay="0.00" arrival="216.00" arrivalLane="1o_0" arrivalPos="492.80" arrivalSpeed="9.85" duration="124.00" routeLength="990.53" waitingTime="36.00" waitingCount="1" stopTime="0.00" timeLoss="49.94" rerouteNo="0" devices="tripinfo_EW_92" vType="car" speedFactor="0.96" vaporized=""/>
    <tripinfo id="SN_70" depart="70.00" departLane="3i_0" departPos="4.10" departSpeed="0.00" departDelay="0.00" arrival="217.00" arrivalLane="4o_0" arrivalPos="492.80" arrivalSpeed="9.10" duration="147.00" routeLength="995.90" waitingTime="60.00" waitingCount="1" stopTime="0.00" timeLoss="71.30" rerouteNo="0" devices="tripinfo_SN_70" vType="car" speedFactor="0.93" vaporized=""/>
    <tripinfo id="NS_141" depart="141.00" departLane="2i_0" departPos="4.10" departSpeed="0.00" departDelay="0.00" arrival="222.00" arrivalLane="3o_0" arrivalPos="492.80" arrivalSpeed="10.98" duration="81.00" routeLength="995.70" waitingTime="0.00" waitingCount="0" stopTime="0.00" timeLoss="10.15" rerouteNo="0" devices="tripinfo_NS_141" vType="car" speedFactor="1.00" vaporized=""/>
    <tripinfo id="WE_150" depart="150.00" departLane="1i_0" departPos="4.10" departSpeed="0.00" departDelay="0.00" arrival="228.00" arrivalLane="2o_0" arrivalPos="492.80" arrivalSpeed="10.88" duration="78.00" routeLength="995.90" waitingTime="0.00" waitingCount="0" stopTime="0.00" timeLoss="8.26" rerouteNo="0" devices="tripinfo_WE_150" vType="car" speedFactor="1.02" vaporized=""/>
    <tripinfo id="SN_76" depart="76.00" departLane="3i_0" departPos="4.10" departSpeed="0.00" departDelay="0.00" arrival="231.00" arrivalLane="1o_0" arrivalPos="492.80" arrivalSpeed="12.40" duration="155.00" routeLength="995.70" waitingTime="77.00" waitingCount="2" stopTime="0.00" timeLoss="94.28" rerouteNo="0" devices="tripinfo_SN_76" vType="car" speedFactor="1.17" vaporized=""/>
    <tripinfo id="EW_110" depart="110.00" departLane="4i_0" departPos="4.10" departSpeed="0.00" departDelay="0.00" arrival="233.00" arrivalLane="2o_0" arrivalPos="492.80" arrivalSpeed="11.14" duration="123.00" routeLength="995.70" waitingTime="40.00" waitingCount="2" stopTime="0.00" timeLoss="57.73" rerouteNo="0" devices="tripinfo_EW_110" vType="car" speedFactor="1.09" vaporized=""/>
    <tripinfo id="WE_161" depart="161.00" departLane="1i_0" departPos="4.10" departSpeed="0.00" departDelay="0.00" arrival="234.00" arrivalLane="3o_0" arrivalPos="492.80" arrivalSpeed="11.48" duration="73.00" routeLength="990.53" waitingTime="0.00" waitingCount="0" stopTime="0.00" timeLoss="7.74" rerouteNo="0" devices="tripinfo_WE_161" vType="car" speedFactor="1.08" vaporized=""/>
    <tripinfo id="NS_162" depart="162.00" departLane="2i_0" departPos="4.10" departSpeed="0.00" departDelay="0.00" arrival="240.00" arrivalLane="4o_0" arrivalPos="492.80" arrivalSpeed="11.13" duration="78.00" routeLength="990.53" waitingTime="0.00" waitingCount="0" stopTime="0.00" timeLoss="7.65" rerouteNo="0" devices="tripinfo_NS_162" vType="car" speedFactor="1.02" vaporized=""/>
    <tripinfo id="NS_164" depart="165.00" departLane="2i_0" departPos="4.10" departSpeed="0.00" departDelay="1.00" arrival="245.00" arrivalLane="4o_0" arrivalPos="492.80" arrivalSpeed="9.81" duration="80.00" routeLength="990.53" waitingTime="0.00" waitingCount="0" stopTime="0.00" timeLoss="7.96" rerouteNo="0" devices="tripinfo_NS_164" vType="car" speedFactor="0.99" vaporized=""/>
    <tripinfo id="SN_81" depart="81.00" departLane="3i_0" departPos="4.10" departSpeed="0.00" departDelay="0.00" arrival="252.00" arrivalLane="4o_0" arrivalPos="492.80" arrivalSpeed="10.53" duration="171.00" routeLength="995.90" waitingTime="78.00" waitingCount="3" stopTime="0.00" timeLoss="98.21" rerouteNo="0" devices="tripinfo_SN_81" vType="car" speedFactor="0.97" vaporized=""/>
    <tripinfo id="EW_114" depart="116.00" departLane="4i_0" departPos="4.10" departSpeed="0.00" departDelay="2.00" arrival="256.00" arrivalLane="1o_0" arrivalPos="492.80" arrivalSpeed="9.21" duration="140.00" routeLength="990.53" waitingTime="40.00" waitingCount="3" stopTime="0.00" timeLoss="61.79" rerouteNo="0" devices="tripinfo_EW_114" vType="car" speedFactor="0.90" vaporized=""/>
    <tripinfo id="NS_184" depart="184.00" departLane="2i_0" departPos="4.10" departSpeed="0.00" departDelay="0.00" arrival="273.00" arrivalLane="4o_0" arrivalPos="492.80" arrivalSpeed="9.59" duration="89.00" routeLength="990.53" waitingTime="1.00" waitingCount="1" stopTime="0.00" timeLoss="16.22" rerouteNo="0" devices="tripinfo_NS_184" vType="car" speedFactor="0.97" vaporized=""/>
    <tripinfo id="NS_174" depart="174.00" departLane="2i_0" departPos="4.10" departSpeed="0.00" departDelay="0.00" arrival="274.00" arrivalLane="3o_0" arrivalPos="492.80" arrivalSpeed="9.17" duration="100.00" routeLength="995.70" waitingTime="9.00" waitingCount="1" stopTime="0.00" timeLoss="22.70" rerouteNo="0" devices="tripinfo_NS_174" vType="car" speedFactor="0.91" vaporized=""/>
    <tripinfo id="NS_190" depart="190.00" departLane="2i_0" departPos="4.10" departSpeed="0.00" departDelay="0.00" arrival="276.00" arrivalLane="1o_0" arrivalPos="492.80" arrivalSpeed="9.88" duration="86.00" routeLength="995.90" waitingTime="0.00" waitingCount="0" stopTime="0.00" timeLoss="11.28" rerouteNo="0" devices="tripinfo_NS_190" vType="car" speedFactor="0.96" vaporized=""/>
    <tripinfo id="NS_192" depart="193.00" departLane="2i_0" departPos="4.10" departSpeed="0.00" departDelay="1.00" arrival="277.00" arrivalLane="3o_0" arrivalPos="492.80" arrivalSpeed="9.81" duration="84.00" routeLength="995.70" waitingTime="0.00" waitingCount="0" stopTime="0.00" timeLoss="11.77" rerouteNo="0" devices="tripinfo_NS_192" vType="car" speedFactor="0.98" vaporized=""/>
    <tripinfo id="NS_206" depart="206.00" departLane="2i_0" departPos="10.10" departSpeed="0.00" departDelay="0.00" arrival="288.00" arrivalLane="4o_0" arrivalPos="492.80" arrivalSpeed="10.56" duration="82.00" routeLength="984.53" waitingTime="0.00" waitingCount="0" stopTime="0.00" timeLoss="12.02" rerouteNo="0" devices="tripinfo_NS_206" vType="truck" speedFactor="1.00" vaporized=""/>
    <tripinfo id="NS_208" depart="210.00" departLane="2i_0" departPos="4.10" departSpeed="0.00" departDelay="2.00" arrival="293.00" arrivalLane="3o_0" arrivalPos="492.80" arrivalSpeed="10.45" duration="83.00" routeLength="995.70" waitingTime="0.00" waitingCount="0" stopTime="0.00" timeLoss="14.07" rerouteNo="0" devices="tripinfo_NS_208" vType="car" speedFactor="1.03" vaporized=""/>
    <tripinfo id="WE_180" depart="180.00" departLane="1i_0" departPos="4.10" departSpeed="0.00" departDelay="0.00" arrival="298.00" arrivalLane="3o_0" arrivalPos="492.80" arrivalSpeed="10.21" duration="118.00" routeLength="990.53" waitingTime="35.00" waitingCount="1" stopTime="0.00" timeLoss="48.50" rerouteNo="0" devices="tripinfo_WE_180" vType="car" speedFactor="1.02" vaporized=""/>
    <tripinfo id="WE_173" depart="173.00" departLane="1i_0" departPos="4.10" departSpeed="0.00" departDelay="0.00" arrival="302.00" arrivalLane="4o_0" arrivalPos="492.80" arrivalSpeed="8.80" duration="129.00" routeLength="995.70" waitingTime="39.00" waitingCount="1" stopTime="0.00" timeLoss="50.99" rerouteNo="0" devices="tripinfo_WE_173" vType="car" speedFactor="0.91" vaporized=""/>
    <tripinfo id="WE_184" depart="184.00" departLane="1i_0" departPos="4.10" departSpeed="0.00" departDelay="0.00" arrival="304.00" arrivalLane="4o_0" arrivalPos="492.80" arrivalSpeed="10.68" duration="120.00" routeLength="995.70" waitingTime="31.00" waitingCount="1" stopTime="0.00" timeLoss="50.49" rerouteNo="0" devices="tripinfo_WE_184" vType="car" speedFactor="1.02" vaporized=""/>
    <tripinfo id="WE_188" depart="188.00" departLane="1i_0" departPos="4.10" departSpeed="0.00" departDelay="0.00" arrival="306.00" arrivalLane="3o_0" arrivalPos="492.80" arrivalSpeed="9.33" duration="118.00" routeLength="990.53" waitingTime="28.00" waitingCount="1" stopTime="0.00" timeLoss="42.46" rerouteNo="0" devices="tripinfo_WE_188" vType="car" speedFactor="0.94" vaporized=""/>
    <tripinfo id="WE_203" depart="203.00" departLane="1i_0" departPos="10.10" departSpeed="0.00" departDelay="0.00" arrival="308.00" arrivalLane="4o_0" arrivalPos="492.80" arrivalSpeed="10.46" duration="105.00" routeLength="989.70" waitingTime="7.00" waitingCount="1" stopTime="0.00" timeLoss="33.72" rerouteNo="0" devices="tripinfo_WE_203" vType="truck" speedFactor="0.99" vaporized=""/>
    <tripinfo id="WE_215" depart="216.00" departLane="1i_0" departPos="4.10" departSpeed="0.00" departDelay="1.00" arrival="308.00" arrivalLane="3o_0" arrivalPos="492.80" arrivalSpeed="12.10" duration="92.00" routeLength="990.53" waitingTime="5.00" waitingCount="1" stopTime="0.00" timeLoss="30.04" rerouteNo="0" devices="tripinfo_WE_215" vType="car" speedFactor="1.15" vaporized=""/>
    <tripinfo id="WE_212" depart="212.00" departLane="1i_0" departPos="4.10" departSpeed="0.00" departDelay="0.00" arrival="313.00" arrivalLane="4o_0" arrivalPos="492.80" arrivalSpeed="10.68" duration="101.00" routeLength="995.70" waitingTime="5.00" waitingCount="1" stopTime="0.00" timeLoss="27.45" rerouteNo="0" devices="tripinfo_WE_212" vType="car" speedFactor="0.97" vaporized=""/>
    <tripinfo id="SN_85" depart="85.00" departLane="3i_0" departPos="4.10" departSpeed="0.00" departDelay="0.00" arrival="315.00" arrivalLane="4o_0" arrivalPos="492.80" arrivalSpeed="11.90" duration="230.00" routeLength="995.90" waitingTime="132.00" waitingCount="4" stopTime="0.00" timeLoss="165.15" rerouteNo="0" devices="tripinfo_SN_85" vType="car" speedFactor="1.10" vaporized=""/>
    <tripinfo id="WE_238" depart="238.00" departLane="1i_0" departPos="4.10" departSpeed="0.00" departDelay="0.00" arrival="315.00" arrivalLane="3o_0" arrivalPos="492.80" arrivalSpeed="10.32" duration="77.00" routeLength="990.53" waitingTime="0.00" waitingCount="0" stopTime="0.00" timeLoss="8.68" rerouteNo="0" devices="tripinfo_WE_238" vType="car" speedFactor="1.04" vaporized=""/>
    <tripinfo id="NS_241" depart="241.00" departLane="2i_0" departPos="4.10" departSpeed="0.00" departDelay="0.00" arrival="319.00" arrivalLane="1o_0" arrivalPos="492.80" arrivalSpeed="10.33" duration="78.00" routeLength="995.90" waitingTime="0.00" waitingCount="0" stopTime="0.00" timeLoss="8.41" rerouteNo="0" devices="tripinfo_NS_241" vType="car" speedFactor="1.02" vaporized=""/>
    <tripinfo id="EW_119" depart="121.00" departLane="4i_0" departPos="4.10" departSpeed="0.00" departDelay="2.00" arrival="327.00" arrivalLane="2o_0" arrivalPos="492.80" arrivalSpeed="8.91" duration="206.00" routeLength="995.70" waitingTime="92.00" waitingCount="5" stopTime="0.00" timeLoss="122.36" rerouteNo="0" devices="tripinfo_EW_119" vType="car" speedFactor="0.85" vaporized=""/>
    <tripinfo id="WE_245" depart="245.00" departLane="1i_0" departPos="4.10" departSpeed="0.00" departDelay="0.00" arrival="331.00" arrivalLane="2o_0" arrivalPos="492.80" arrivalSpeed="9.02" duration="86.00" routeLength="995.90" waitingTime="0.00" waitingCount="0" stopTime="0.00" timeLoss="8.51" rerouteNo="0" devices="tripinfo_WE_245" vType="car" speedFactor="0.92" vaporized=""/>
    <tripinfo id="NS_255" depart="255.00" departLane="2i_0" departPos="4.10" departSpeed="0.00" departDelay="0.00" arrival="334.00" arrivalLane="3o_0" arrivalPos="492.80" arrivalSpeed="10.90" duration="79.00" routeLength="995.70" waitingTime="0.00" waitingCount="0" stopTime="0.00" timeLoss="9.05" rerouteNo="0" devices="tripinfo_NS_255" vType="car" speedFactor="1.01" vaporized=""/>
    <tripinfo id="SN_94" depart="95.00" departLane="3i_0" departPos="4.10" departSpeed="0.00" departDelay="1.00" arrival="336.00" arrivalLane="4o_0" arrivalPos="492.80" arrivalSpeed="11.65" duration="241.00" routeLength="995.90" waitingTime="138.00" waitingCount="5" stopTime="0.00" timeLoss="176.15" rerouteNo="0" devices="tripinfo_SN_94" vType="car" speedFactor="1.09" vaporized=""/>
    <tripinfo id="EW_135" depart="135.00" departLane="4i_0" departPos="4.10" departSpeed="0.00" departDelay="0.00" arrival="343.00" arrivalLane="2o_0" arrivalPos="492.80" arrivalSpeed="10.84" duration="208.00" routeLength="995.70" waitingTime="104.00" waitingCount="6" stopTime="0.00" timeLoss="138.38" rerouteNo="0" devices="tripinfo_EW_135" vType="car" speedFactor="1.02" vaporized=""/>
    <tripinfo id="WE_270" depart="270.00" departLane="1i_0" departPos="4.10" departSpeed="0.00" departDelay="0.00" arrival="351.00" arrivalLane="3o_0" arrivalPos="492.80" arrivalSpeed="9.89" duration="81.00" routeLength="990.53" waitingTime="0.00" waitingCount="0" stopTime="0.00" timeLoss="8.21" rerouteNo="0" devices="tripinfo_WE_270" vType="car" speedFactor="0.97" vaporized=""/>
    <tripinfo id="WE_273" depart="273.00" departLane="1i_0" departPos="4.10" departSpeed="0.00" departDelay="0.00" arrival="353.00" arrivalLane="3o_0" arrivalPos="492.80" arrivalSpeed="10.89" duration="80.00" routeLength="990.53" waitingTime="0.00" waitingCount="0" stopTime="0.00" timeLoss="13.98" rerouteNo="0" devices="tripinfo_WE_273" vType="car" speedFactor="1.07" vaporized=""/>
    <tripinfo id="SN_105" depart="105.00" departLane="3i_0" departPos="4.10" departSpeed="0.00" departDelay="0.00" arrival="354.00" arrivalLane="2o_0" arrivalPos="492.80" arrivalSpeed="11.08" duration="249.00" routeLength="990.53" waitingTime="137.00" waitingCount="6" stopTime="0.00" timeLoss="180.69" rerouteNo="0" devices="tripinfo_SN_105" vType="car" speedFactor="1.04" vaporized=""/>
    <tripinfo id="NS_256" depart="258.00" departLane="2i_0" departPos="10.10" departSpeed="0.00" departDelay="2.00" arrival="360.00" arrivalLane="3o_0" arrivalPos="492.80" arrivalSpeed="10.37" duration="102.00" routeLength="989.70" waitingTime="6.00" waitingCount="1" stopTime="0.00" timeLoss="28.20" rerouteNo="0" devices="tripinfo_NS_256" vType="truck" speedFactor="0.95" vaporized=""/>
    <tripinfo id="WE_284" depart="284.00" departLane="1i_0" departPos="4.10" departSpeed="0.00" departDelay="0.00" arrival="361.00" arrivalLane="2o_0" arrivalPos="492.80" arrivalSpeed="10.55" duration="77.00" routeLength="995.90" waitingTime="0.00" waitingCount="0" stopTime="0.00" timeLoss="8.69" rerouteNo="0" devices="tripinfo_WE_284" vType="car" speedFactor="1.03" vaporized=""/>