<?xml version="1.0" encoding="UTF-8"?>

<!-- generated on 2024-05-05 15:41:34 by Eclipse SUMO sumo Version 1.19.0
<configuration xmlns:xsi="http://www.w3.org/2001/XMLSchema-instance" xsi:noNamespaceSchemaLocation="http://sumo.dlr.de/xsd/sumoConfiguration.xsd">

    <input>
        <net-file value="twoone.net.xml"/>
        <route-files value="route_gen.rou.xml"/>
    </input>

    <output>
        <tripinfo-output value="tripinfo_epi12.xml"/>
    </output>

    <report>
        <no-warnings value="true"/>
    </report>

    <traci_server>
        <remote-port value="36675"/>
    </traci_server>

</configuration>
-->

<tripinfos xmlns:xsi="http://www.w3.org/2001/XMLSchema-instance" xsi:noNamespaceSchemaLocation="http://sumo.dlr.de/xsd/tripinfo_file.xsd">
    <tripinfo id="EW_1" depart="1.00" departLane="4i_0" departPos="4.10" departSpeed="0.00" departDelay="0.00" arrival="76.00" arrivalLane="1o_0" arrivalPos="492.80" arrivalSpeed="10.53" duration="75.00" routeLength="990.53" waitingTime="0.00" waitingCount="0" stopTime="0.00" timeLoss="8.27" rerouteNo="0" devices="tripinfo_EW_1" vType="car" speedFactor="1.06" vaporized=""/>
    <tripinfo id="SN_4" depart="4.00" departLane="3i_0" departPos="4.10" departSpeed="0.00" departDelay="0.00" arrival="81.00" arrivalLane="2o_0" arrivalPos="492.80" arrivalSpeed="10.19" duration="77.00" routeLength="990.53" waitingTime="0.00" waitingCount="0" stopTime="0.00" timeLoss="8.82" rerouteNo="0" devices="tripinfo_SN_4" vType="car" speedFactor="1.03" vaporized=""/>
    <tripinfo id="WE_3" depart="3.00" departLane="1i_0" departPos="10.10" departSpeed="0.00" departDelay="0.00" arrival="85.00" arrivalLane="2o_0" arrivalPos="492.80" arrivalSpeed="10.90" duration="82.00" routeLength="989.90" waitingTime="0.00" waitingCount="0" stopTime="0.00" timeLoss="11.51" rerouteNo="0" devices="tripinfo_WE_3" vType="truck" speedFactor="1.01" vaporized=""/>
    <tripinfo id="EW_2" depart="4.00" departLane="4i_0" departPos="4.10" departSpeed="0.00" departDelay="2.00" arrival="94.00" arrivalLane="2o_0" arrivalPos="492.80" arrivalSpeed="9.66" duration="90.00" routeLength="995.70" waitingTime="0.00" waitingCount="0" stopTime="0.00" timeLoss="13.99" rerouteNo="0" devices="tripinfo_EW_2" vType="car" speedFactor="0.94" vaporized=""/>
    <tripinfo id="WE_4" depart="7.00" departLane="1i_0" departPos="4.10" departSpeed="0.00" departDelay="3.00" arrival="95.00" arrivalLane="2o_0" arrivalPos="492.80" arrivalSpeed="11.45" duration="88.00" routeLength="995.90" waitingTime="0.00" waitingCount="0" stopTime="0.00" timeLoss="22.66" rerouteNo="0" devices="tripinfo_WE_4" vType="car" speedFactor="1.08" vaporized=""/>
    <tripinfo id="EW_15" depart="15.00" departLane="4i_0" departPos="4.10" departSpeed="0.00" departDelay="0.00" arrival="99.00" arrivalLane="1o_0" arrivalPos="492.80" arrivalSpeed="9.85" duration="84.00" routeLength="990.53" waitingTime="0.00" waitingCount="0" stopTime="0.00" timeLoss="9.02" rerouteNo="0" devices="tripinfo_EW_15" vType="car" speedFactor="0.94" vaporized=""/>
    <tripinfo id="EW_16" depart="18.00" departLane="4i_0" departPos="4.10" departSpeed="0.00" departDelay="2.00" arrival="99.00" arrivalLane="2o_0" arrivalPos="492.80" arrivalSpeed="11.66" duration="81.00" routeLength="995.70" waitingTime="2.00" waitingCount="1" stopTime="0.00" timeLoss="16.25" rerouteNo="0" devices="tripinfo_EW_16" vType="car" speedFactor="1.09" vaporized=""/>
    <tripinfo id="SN_16" depart="16.00" departLane="3i_0" departPos="4.10" departSpeed="0.00" departDelay="0.00" arrival="101.00" arrivalLane="1o_0" arrivalPos="492.80" arrivalSpeed="11.33" duration="85.00" routeLength="995.70" waitingTime="0.00" waitingCount="0" stopTime="0.00" timeLoss="15.65" rerouteNo="0" devices="tripinfo_SN_16" vType="car" speedFactor="1.03" vaporized=""/>
    <tripinfo id="SN_26" depart="26.00" departLane="3i_0" departPos="4.10" departSpeed="0.00" departDelay="0.00" arrival="103.00" arrivalLane="1o_0" arrivalPos="492.80" arrivalSpeed="11.53" duration="77.00" routeLength="995.70" waitingTime="0.00" waitingCount="0" stopTime="0.00" timeLoss="13.24" rerouteNo="0" devices="tripinfo_SN_26" vType="car" speedFactor="1.12" vaporized=""/>
    <tripinfo id="EW_6" depart="7.00" departLane="4i_0" departPos="4.10" departSpeed="0.00" departDelay="1.00" arrival="104.00" arrivalLane="3o_0" arrivalPos="492.80" arrivalSpeed="8.52" duration="97.00" routeLength="995.90" waitingTime="0.00" waitingCount="0" stopTime="0.00" timeLoss="11.91" rerouteNo="0" devices="tripinfo_EW_6" vType="car" speedFactor="0.83" vaporized=""/>
    <tripinfo id="WE_13" depart="13.00" departLane="1i_0" departPos="4.10" departSpeed="0.00" departDelay="0.00" arrival="106.00" arrivalLane="3o_0" arrivalPos="492.80" arrivalSpeed="10.82" duration="93.00" routeLength="990.53" waitingTime="3.00" waitingCount="1" stopTime="0.00" timeLoss="25.30" rerouteNo="0" devices="tripinfo_WE_13" vType="car" speedFactor="1.05" vaporized=""/>
    <tripinfo id="NS_13" depart="13.00" departLane="2i_0" departPos="4.10" departSpeed="0.00" departDelay="0.00" arrival="106.00" arrivalLane="4o_0" arrivalPos="492.80" arrivalSpeed="8.78" duration="93.00" routeLength="990.53" waitingTime="0.00" waitingCount="0" stopTime="0.00" timeLoss="13.70" rerouteNo="0" devices="tripinfo_NS_13" vType="car" speedFactor="0.89" vaporized=""/>
    <tripinfo id="NS_18" depart="18.00" departLane="2i_0" departPos="4.10" departSpeed="0.00" departDelay="0.00" arrival="107.00" arrivalLane="1o_0" arrivalPos="492.80" arrivalSpeed="11.17" duration="89.00" routeLength="995.90" waitingTime="4.00" waitingCount="2" stopTime="0.00" timeLoss="21.06" rerouteNo="0" devices="tripinfo_NS_18" vType="car" speedFactor="1.05" vaporized=""/>
    <tripinfo id="EW_34" depart="34.00" departLane="4i_0" departPos="4.10" departSpeed="0.00" departDelay="0.00" arrival="114.00" arrivalLane="1o_0" arrivalPos="492.80" arrivalSpeed="10.89" duration="80.00" routeLength="990.53" waitingTime="0.00" waitingCount="0" stopTime="0.00" timeLoss="8.12" rerouteNo="0" devices="tripinfo_EW_34" vType="car" speedFactor="0.99" vaporized=""/>
    <tripinfo id="WE_16" depart="16.00" departLane="1i_0" departPos="4.10" departSpeed="0.00" departDelay="0.00" arrival="117.00" arrivalLane="2o_0" arrivalPos="492.80" arrivalSpeed="8.75" duration="101.00" routeLength="995.90" waitingTime="3.00" waitingCount="1" stopTime="0.00" timeLoss="18.09" rerouteNo="0" devices="tripinfo_WE_16" vType="car" speedFactor="0.86" vaporized=""/>
    <tripinfo id="NS_34" depart="34.00" departLane="2i_0" departPos="4.10" departSpeed="0.00" departDelay="0.00" arrival="118.00" arrivalLane="4o_0" arrivalPos="492.80" arrivalSpeed="9.73" duration="84.00" routeLength="990.53" waitingTime="0.00" waitingCount="0" stopTime="0.00" timeLoss="8.04" rerouteNo="0" devices="tripinfo_NS_34" vType="car" speedFactor="0.93" vaporized=""/>
    <tripinfo id="SN_35" depart="35.00" departLane="3i_0" departPos="4.10" departSpeed="0.00" departDelay="0.00" arrival="120.00" arrivalLane="4o_0" arrivalPos="492.80" arrivalSpeed="9.72" duration="85.00" routeLength="995.90" waitingTime="0.00" waitingCount="0" stopTime="0.00" timeLoss="9.71" rerouteNo="0" devices="tripinfo_SN_35" vType="car" speedFactor="0.94" vaporized=""/>
    <tripinfo id="WE_40" depart="40.00" departLane="1i_0" departPos="4.10" departSpeed="0.00" departDelay="0.00" arrival="121.00" arrivalLane="3o_0" arrivalPos="492.80" arrivalSpeed="10.27" duration="81.00" routeLength="990.53" waitingTime="0.00" waitingCount="0" stopTime="0.00" timeLoss="8.55" rerouteNo="0" devices="tripinfo_WE_40" vType="car" speedFactor="0.97" vaporized=""/>
    <tripinfo id="NS_38" depart="38.00" departLane="2i_0" departPos="4.10" departSpeed="0.00" departDelay="0.00" arrival="123.00" arrivalLane="3o_0" arrivalPos="492.80" arrivalSpeed="10.44" duration="85.00" routeLength="995.70" waitingTime="0.00" waitingCount="0" stopTime="0.00" timeLoss="14.58" rerouteNo="0" devices="tripinfo_NS_38" vType="car" speedFactor="1.01" vaporized=""/>
    <tripinfo id="SN_36" depart="38.00" departLane="3i_0" departPos="4.10" departSpeed="0.00" departDelay="2.00" arrival="126.00" arrivalLane="2o_0" arrivalPos="492.80" arrivalSpeed="9.80" duration="88.00" routeLength="990.53" waitingTime="2.00" waitingCount="1" stopTime="0.00" timeLoss="12.07" rerouteNo="0" devices="tripinfo_SN_36" vType="car" speedFactor="0.94" vaporized=""/>
    <tripinfo id="SN_37" depart="41.00" departLane="3i_0" departPos="4.10" departSpeed="0.00" departDelay="4.00" arrival="127.00" arrivalLane="2o_0" arrivalPos="492.80" arrivalSpeed="11.02" duration="86.00" routeLength="990.53" waitingTime="0.00" waitingCount="0" stopTime="0.00" timeLoss="16.86" rerouteNo="0" devices="tripinfo_SN_37" vType="car" speedFactor="1.02" vaporized=""/>
    <tripinfo id="EW_37" depart="40.00" departLane="4i_0" departPos="4.10" departSpeed="0.00" departDelay="3.00" arrival="129.00" arrivalLane="2o_0" arrivalPos="492.80" arrivalSpeed="12.55" duration="89.00" routeLength="995.70" waitingTime="2.00" waitingCount="1" stopTime="0.00" timeLoss="27.56" rerouteNo="0" devices="tripinfo_EW_37" vType="car" speedFactor="1.16" vaporized=""/>
    <tripinfo id="NS_42" depart="42.00" departLane="2i_0" departPos="4.10" departSpeed="0.00" departDelay="0.00" arrival="131.00" arrivalLane="4o_0" arrivalPos="492.80" arrivalSpeed="9.57" duration="89.00" routeLength="990.53" waitingTime="0.00" waitingCount="0" stopTime="0.00" timeLoss="10.04" rerouteNo="0" devices="tripinfo_NS_42" vType="car" speedFactor="0.89" vaporized=""/>
    <tripinfo id="EW_35" depart="36.00" departLane="4i_0" departPos="4.10" departSpeed="0.00" departDelay="1.00" arrival="132.00" arrivalLane="3o_0" arrivalPos="492.80" arrivalSpeed="8.64" duration="96.00" routeLength="995.90" waitingTime="2.00" waitingCount="1" stopTime="0.00" timeLoss="15.15" rerouteNo="0" devices="tripinfo_EW_35" vType="car" speedFactor="0.88" vaporized=""/>
    <tripinfo id="NS_61" depart="61.00" departLane="2i_0" departPos="4.10" departSpeed="0.00" departDelay="0.00" arrival="134.00" arrivalLane="3o_0" arrivalPos="492.80" arrivalSpeed="12.55" duration="73.00" routeLength="995.70" waitingTime="0.00" waitingCount="0" stopTime="0.00" timeLoss="10.65" rerouteNo="0" devices="tripinfo_NS_61" vType="car" speedFactor="1.13" vaporized=""/>
    <tripinfo id="SN_42" depart="43.00" departLane="3i_0" departPos="4.10" departSpeed="0.00" departDelay="1.00" arrival="140.00" arrivalLane="2o_0" arrivalPos="492.80" arrivalSpeed="8.64" duration="97.00" routeLength="990.53" waitingTime="1.00" waitingCount="1" stopTime="0.00" timeLoss="11.29" rerouteNo="0" devices="tripinfo_SN_42" vType="car" speedFactor="0.83" vaporized=""/>
    <tripinfo id="NS_43" depart="44.00" departLane="2i_0" departPos="4.10" departSpeed="0.00" departDelay="1.00" arrival="140.00" arrivalLane="4o_0" arrivalPos="492.80" arrivalSpeed="9.47" duration="96.00" routeLength="990.53" waitingTime="3.00" waitingCount="1" stopTime="0.00" timeLoss="14.78" rerouteNo="0" devices="tripinfo_NS_43" vType="car" speedFactor="0.87" vaporized=""/>
    <tripinfo id="WE_50" depart="50.00" departLane="1i_0" departPos="4.10" departSpeed="0.00" departDelay="0.00" arrival="142.00" arrivalLane="4o_0" arrivalPos="492.80" arrivalSpeed="9.87" duration="92.00" routeLength="995.70" waitingTime="0.00" waitingCount="0" stopTime="0.00" timeLoss="14.11" rerouteNo="0" devices="tripinfo_WE_50" vType="car" speedFactor="0.92" vaporized=""/>
    <tripinfo id="EW_58" depart="58.00" departLane="4i_0" departPos="4.10" departSpeed="0.00" departDelay="0.00" arrival="146.00" arrivalLane="1o_0" arrivalPos="492.80" arrivalSpeed="10.32" duration="88.00" routeLength="990.53" waitingTime="2.00" waitingCount="1" stopTime="0.00" timeLoss="13.32" rerouteNo="0" devices="tripinfo_EW_58" vType="car" speedFactor="0.95" vaporized=""/>
    <tripinfo id="SN_67" depart="67.00" departLane="3i_0" departPos="4.10" departSpeed="0.00" departDelay="0.00" arrival="146.00" arrivalLane="2o_0" arrivalPos="492.80" arrivalSpeed="11.09" duration="79.00" routeLength="990.53" waitingTime="0.00" waitingCount="0" stopTime="0.00" timeLoss="8.46" rerouteNo="0" devices="tripinfo_SN_67" vType="car" speedFactor="1.01" vaporized=""/>
    <tripinfo id="NS_66" depart="66.00" departLane="2i_0" departPos="4.10" departSpeed="0.00" departDelay="0.00" arrival="147.00" arrivalLane="1o_0" arrivalPos="492.80" arrivalSpeed="11.74" duration="81.00" routeLength="995.90" waitingTime="0.00" waitingCount="0" stopTime="0.00" timeLoss="21.02" rerouteNo="0" devices="tripinfo_NS_66" vType="car" speedFactor="1.18" vaporized=""/>
    <tripinfo id="SN_68" depart="70.00" departLane="3i_0" departPos="4.10" departSpeed="0.00" departDelay="2.00" arrival="148.00" arrivalLane="2o_0" arrivalPos="492.80" arrivalSpeed="12.13" duration="78.00" routeLength="990.53" waitingTime="0.00" waitingCount="0" stopTime="0.00" timeLoss="17.09" rerouteNo="0" devices="tripinfo_SN_68" vType="car" speedFactor="1.17" vaporized=""/>
    <tripinfo id="WE_70" depart="70.00" departLane="1i_0" departPos="4.10" departSpeed="0.00" departDelay="0.00" arrival="154.00" arrivalLane="3o_0" arrivalPos="492.80" arrivalSpeed="10.05" duration="84.00" routeLength="990.53" waitingTime="0.00" waitingCount="0" stopTime="0.00" timeLoss="13.44" rerouteNo="0" devices="tripinfo_WE_70" vType="car" speedFactor="0.99" vaporized=""/>
    <tripinfo id="NS_70" depart="70.00" departLane="2i_0" departPos="4.10" departSpeed="0.00" departDelay="0.00" arrival="154.00" arrivalLane="1o_0" arrivalPos="492.80" arrivalSpeed="10.49" duration="84.00" routeLength="995.90" waitingTime="2.00" waitingCount="2" stopTime="0.00" timeLoss="14.42" rerouteNo="0" devices="tripinfo_NS_70" vType="car" speedFactor="1.02" vaporized=""/>
    <tripinfo id="WE_62" depart="62.00" departLane="1i_0" departPos="4.10" departSpeed="0.00" departDelay="0.00" arrival="156.00" arrivalLane="4o_0" arrivalPos="492.80" arrivalSpeed="9.55" duration="94.00" routeLength="995.70" waitingTime="2.00" waitingCount="1" stopTime="0.00" timeLoss="17.55" rerouteNo="0" devices="tripinfo_WE_62" vType="car" speedFactor="0.93" vaporized=""/>
    <tripinfo id="NS_75" depart="75.00" departLane="2i_0" departPos="4.10" departSpeed="0.00" departDelay="0.00" arrival="156.00" arrivalLane="3o_0" arrivalPos="492.80" arrivalSpeed="11.20" duration="81.00" routeLength="995.70" waitingTime="0.00" waitingCount="0" stopTime="0.00" timeLoss="16.56" rerouteNo="0" devices="tripinfo_NS_75" vType="car" speedFactor="1.10" vaporized=""/>
    <tripinfo id="SN_70" depart="74.00" departLane="3i_0" departPos="10.10" departSpeed="0.00" departDelay="4.00" arrival="159.00" arrivalLane="2o_0" arrivalPos="492.80" arrivalSpeed="10.92" duration="85.00" routeLength="984.53" waitingTime="0.00" waitingCount="0" stopTime="0.00" timeLoss="13.94" rerouteNo="0" devices="tripinfo_SN_70" vType="truck" speedFactor="0.99" vaporized=""/>
    <tripinfo id="WE_85" depart="85.00" departLane="1i_0" departPos="4.10" departSpeed="0.00" departDelay="0.00" arrival="159.00" arrivalLane="3o_0" arrivalPos="492.80" arrivalSpeed="11.79" duration="74.00" routeLength="990.53" waitingTime="0.00" waitingCount="0" stopTime="0.00" timeLoss="8.88" rerouteNo="0" devices="tripinfo_WE_85" vType="car" speedFactor="1.09" vaporized=""/>
    <tripinfo id="EW_67" depart="67.00" departLane="4i_0" departPos="4.10" departSpeed="0.00" departDelay="0.00" arrival="161.00" arrivalLane="2o_0" arrivalPos="492.80" arrivalSpeed="12.60" duration="94.00" routeLength="995.70" waitingTime="13.00" waitingCount="1" stopTime="0.00" timeLoss="32.80" rerouteNo="0" devices="tripinfo_EW_67" vType="car" speedFactor="1.15" vaporized=""/>
    <tripinfo id="NS_81" depart="81.00" departLane="2i_0" departPos="4.10" departSpeed="0.00" departDelay="0.00" arrival="163.00" arrivalLane="4o_0" arrivalPos="492.80" arrivalSpeed="11.34" duration="82.00" routeLength="990.53" waitingTime="1.00" waitingCount="1" stopTime="0.00" timeLoss="13.19" rerouteNo="0" devices="tripinfo_NS_81" vType="car" speedFactor="1.03" vaporized=""/>
    <tripinfo id="EW_72" depart="72.00" departLane="4i_0" departPos="10.10" departSpeed="0.00" departDelay="0.00" arrival="164.00" arrivalLane="3o_0" arrivalPos="492.80" arrivalSpeed="11.58" duration="92.00" routeLength="989.90" waitingTime="3.00" waitingCount="1" stopTime="0.00" timeLoss="26.09" rerouteNo="0" devices="tripinfo_EW_72" vType="truck" speedFactor="1.09" vaporized=""/>
    <tripinfo id="WE_93" depart="93.00" departLane="1i_0" departPos="4.10" departSpeed="0.00" departDelay="0.00" arrival="174.00" arrivalLane="4o_0" arrivalPos="492.80" arrivalSpeed="11.39" duration="81.00" routeLength="995.70" waitingTime="0.00" waitingCount="0" stopTime="0.00" timeLoss="15.34" rerouteNo="0" devices="tripinfo_WE_93" vType="car" speedFactor="1.09" vaporized=""/>
    <tripinfo id="SN_76" depart="78.00" departLane="3i_0" departPos="4.10" departSpeed="0.00" departDelay="2.00" arrival="177.00" arrivalLane="1o_0" arrivalPos="492.80" arrivalSpeed="9.03" duration="99.00" routeLength="995.70" waitingTime="2.00" waitingCount="1" stopTime="0.00" timeLoss="20.01" rerouteNo="0" devices="tripinfo_SN_76" vType="car" speedFactor="0.90" vaporized=""/>
    <tripinfo id="NS_91" depart="91.00" departLane="2i_0" departPos="4.10" departSpeed="0.00" departDelay="0.00" arrival="178.00" arrivalLane="1o_0" arrivalPos="492.80" arrivalSpeed="11.05" duration="87.00" routeLength="995.90" waitingTime="0.00" waitingCount="0" stopTime="0.00" timeLoss="19.02" rerouteNo="0" devices="tripinfo_NS_91" vType="car" speedFactor="1.04" vaporized=""/>
    <tripinfo id="WE_94" depart="95.00" departLane="1i_0" departPos="4.10" departSpeed="0.00" departDelay="1.00" arrival="179.00" arrivalLane="2o_0" arrivalPos="492.80" arrivalSpeed="10.39" duration="84.00" routeLength="995.90" waitingTime="0.00" waitingCount="0" stopTime="0.00" timeLoss="12.90" rerouteNo="0" devices="tripinfo_WE_94" vType="car" speedFactor="1.00" vaporized=""/>
    <tripinfo id="SN_81" depart="81.00" departLane="3i_0" departPos="4.10" departSpeed="0.00" departDelay="0.00" arrival="180.00" arrivalLane="1o_0" arrivalPos="492.80" arrivalSpeed="10.31" duration="99.00" routeLength="995.70" waitingTime="3.00" waitingCount="2" stopTime="0.00" timeLoss="25.06" rerouteNo="0" devices="tripinfo_SN_81" vType="car" speedFactor="0.96" vaporized=""/>
    <tripinfo id="NS_92" depart="95.00" departLane="2i_0" departPos="4.10" departSpeed="0.00" departDelay="3.00" arrival="180.00" arrivalLane="3o_0" arrivalPos="492.80" arrivalSpeed="10.39" duration="85.00" routeLength="995.70" waitingTime="1.00" waitingCount="1" stopTime="0.00" timeLoss="16.59" rerouteNo="0" devices="tripinfo_NS_92" vType="car" speedFactor="1.04" vaporized=""/>
    <tripinfo id="EW_95" depart="95.00" departLane="4i_0" departPos="10.10" departSpeed="0.00" departDelay="0.00" arrival="186.00" arrivalLane="2o_0" arrivalPos="492.80" arrivalSpeed="10.11" duration="91.00" routeLength="989.70" waitingTime="0.00" waitingCount="0" stopTime="0.00" timeLoss="15.71" rerouteNo="0" devices="tripinfo_EW_95" vType="truck" speedFactor="0.94" vaporized=""/>
    <tripinfo id="WE_95" depart="99.00" departLane="1i_0" departPos="4.10" departSpeed="0.00" departDelay="4.00" arrival="195.00" arrivalLane="4o_0" arrivalPos="492.80" arrivalSpeed="8.93" duration="96.00" routeLength="995.70" waitingTime="2.00" waitingCount="2" stopTime="0.00" timeLoss="17.03" rerouteNo="0" devices="tripinfo_WE_95" vType="car" speedFactor="0.90" vaporized=""/>
    <tripinfo id="NS_97" depart="99.00" departLane="2i_0" departPos="4.10" departSpeed="0.00" departDelay="2.00" arrival="196.00" arrivalLane="3o_0" arrivalPos="492.80" arrivalSpeed="9.11" duration="97.00" routeLength="995.70" waitingTime="0.00" waitingCount="0" stopTime="0.00" timeLoss="13.83" rerouteNo="0" devices="tripinfo_NS_97" vType="car" speedFactor="0.85" vaporized=""/>
    <tripinfo id="NS_105" depart="105.00" departLane="2i_0" departPos="4.10" departSpeed="0.00" departDelay="0.00" arrival="197.00" arrivalLane="4o_0" arrivalPos="492.80" arrivalSpeed="12.19" duration="92.00" routeLength="990.53" waitingTime="2.00" waitingCount="1" stopTime="0.00" timeLoss="31.06" rerouteNo="0" devices="tripinfo_NS_105" vType="car" speedFactor="1.17" vaporized=""/>
    <tripinfo id="SN_111" depart="111.00" departLane="3i_0" departPos="4.10" departSpeed="0.00" departDelay="0.00" arrival="198.00" arrivalLane="2o_0" arrivalPos="492.80" arrivalSpeed="10.48" duration="87.00" routeLength="990.53" waitingTime="3.00" waitingCount="2" stopTime="0.00" timeLoss="17.75" rerouteNo="0" devices="tripinfo_SN_111" vType="car" speedFactor="1.02" vaporized=""/>
    <tripinfo id="NS_112" depart="112.00" departLane="2i_0" departPos="4.10" departSpeed="0.00" departDelay="0.00" arrival="198.00" arrivalLane="4o_0" arrivalPos="492.80" arrivalSpeed="10.92" duration="86.00" routeLength="990.53" waitingTime="0.00" waitingCount="0" stopTime="0.00" timeLoss="21.80" rerouteNo="0" devices="tripinfo_NS_112" vType="car" speedFactor="1.10" vaporized=""/>
    <tripinfo id="SN_102" depart="102.00" departLane="3i_0" departPos="4.10" departSpeed="0.00" departDelay="0.00" arrival="203.00" arrivalLane="1o_0" arrivalPos="492.80" arrivalSpeed="8.67" duration="101.00" routeLength="995.70" waitingTime="4.00" waitingCount="1" stopTime="0.00" timeLoss="18.09" rerouteNo="0" devices="tripinfo_SN_102" vType="car" speedFactor="0.85" vaporized=""/>
    <tripinfo id="SN_112" depart="114.00" departLane="3i_0" departPos="4.10" departSpeed="0.00" departDelay="2.00" arrival="205.00" arrivalLane="1o_0" arrivalPos="492.80" arrivalSpeed="10.60" duration="91.00" routeLength="995.70" waitingTime="1.00" waitingCount="1" stopTime="0.00" timeLoss="20.21" rerouteNo="0" devices="tripinfo_SN_112" vType="car" speedFactor="1.00" vaporized=""/>
    <tripinfo id="SN_122" depart="123.00" departLane="3i_0" departPos="4.10" departSpeed="0.00" departDelay="1.00" arrival="207.00" arrivalLane="1o_0" arrivalPos="492.80" arrivalSpeed="10.51" duration="84.00" routeLength="995.70" waitingTime="0.00" waitingCount="0" stopTime="0.00" timeLoss="12.99" rerouteNo="0" devices="tripinfo_SN_122" vType="car" speedFactor="1.00" vaporized=""/>
    <tripinfo id="NS_127" depart="127.00" departLane="2i_0" departPos="4.10" departSpeed="0.00" departDelay="0.00" arrival="209.00" arrivalLane="1o_0" arrivalPos="492.80" arrivalSpeed="12.08" duration="82.00" routeLength="995.90" waitingTime="4.00" waitingCount="1" stopTime="0.00" timeLoss="19.76" rerouteNo="0" devices="tripinfo_NS_127" vType="car" speedFactor="1.14" vaporized=""/>
    <tripinfo id="WE_133" depart="133.00" departLane="1i_0" departPos="4.10" departSpeed="0.00" departDelay="0.00" arrival="211.00" arrivalLane="2o_0" arrivalPos="492.80" arrivalSpeed="11.31" duration="78.00" routeLength="995.90" waitingTime="0.00" waitingCount="0" stopTime="0.00" timeLoss="8.43" rerouteNo="0" devices="tripinfo_WE_133" vType="car" speedFactor="1.02" vaporized=""/>
    <tripinfo id="NS_133" depart="133.00" departLane="2i_0" departPos="4.10" departSpeed="0.00" departDelay="0.00" arrival="211.00" arrivalLane="3o_0" arrivalPos="492.80" arrivalSpeed="12.00" duration="78.00" routeLength="995.70" waitingTime="0.00" waitingCount="0" stopTime="0.00" timeLoss="12.45" rerouteNo="0" devices="tripinfo_NS_133" vType="car" speedFactor="1.08" vaporized=""/>
    <tripinfo id="NS_134" depart="136.00" departLane="2i_0" departPos="4.10" departSpeed="0.00" departDelay="2.00" arrival="211.00" arrivalLane="1o_0" arrivalPos="492.80" arrivalSpeed="12.42" duration="75.00" routeLength="995.90" waitingTime="0.00" waitingCount="0" stopTime="0.00" timeLoss="12.04" rerouteNo="0" devices="tripinfo_NS_134" vType="car" speedFactor="1.12" vaporized=""/>
    <tripinfo id="WE_135" depart="136.00" departLane="1i_0" departPos="4.10" departSpeed="0.00" departDelay="1.00" arrival="217.00" arrivalLane="2o_0" arrivalPos="492.80" arrivalSpeed="10.73" duration="81.00" routeLength="995.90" waitingTime="0.00" waitingCount="0" stopTime="0.00" timeLoss="11.28" rerouteNo="0" devices="tripinfo_WE_135" vType="car" speedFactor="1.02" vaporized=""/>
    <tripinfo id="EW_126" depart="126.00" departLane="4i_0" departPos="10.10" departSpeed="0.00" departDelay="0.00" arrival="224.00" arrivalLane="3o_0" arrivalPos="492.80" arrivalSpeed="10.00" duration="98.00" routeLength="989.90" waitingTime="3.00" waitingCount="1" stopTime="0.00" timeLoss="23.72" rerouteNo="0" devices="tripinfo_EW_126" vType="truck" speedFactor="0.95" vaporized=""/>
    <tripinfo id="NS_139" depart="140.00" departLane="2i_0" departPos="4.10" departSpeed="0.00" departDelay="1.00" arrival="226.00" arrivalLane="4o_0" arrivalPos="492.80" arrivalSpeed="9.27" duration="86.00" routeLength="990.53" waitingTime="0.00" waitingCount="0" stopTime="0.00" timeLoss="10.34" rerouteNo="0" devices="tripinfo_NS_139" vType="car" speedFactor="0.94" vaporized=""/>
    <tripinfo id="EW_133" depart="133.00" departLane="4i_0" departPos="4.10" departSpeed="0.00" departDelay="0.00" arrival="228.00" arrivalLane="1o_0" arrivalPos="492.80" arrivalSpeed="10.00" duration="95.00" routeLength="990.53" waitingTime="1.00" waitingCount="1" stopTime="0.00" timeLoss="21.95" rerouteNo="0" devices="tripinfo_EW_133" vType="car" speedFactor="0.97" vaporized=""/>
    <tripinfo id="WE_150" depart="150.00" departLane="1i_0" departPos="4.10" departSpeed="0.00" departDelay="0.00" arrival="229.00" arrivalLane="3o_0" arrivalPos="492.80" arrivalSpeed="10.95" duration="79.00" routeLength="990.53" waitingTime="1.00" waitingCount="1" stopTime="0.00" timeLoss="10.79" rerouteNo="0" devices="tripinfo_WE_150" vType="car" speedFactor="1.04" vaporized=""/>
    <tripinfo id="EW_135" depart="136.00" departLane="4i_0" departPos="4.10" departSpeed="0.00" departDelay="1.00" arrival="230.00" arrivalLane="2o_0" arrivalPos="492.80" arrivalSpeed="9.70" duration="94.00" routeLength="995.70" waitingTime="1.00" waitingCount="1" stopTime="0.00" timeLoss="21.78" rerouteNo="0" devices="tripinfo_EW_135" vType="car" speedFactor="0.99" vaporized=""/>
    <tripinfo id="NS_151" depart="151.00" departLane="2i_0" departPos="4.10" departSpeed="0.00" departDelay="0.00" arrival="231.00" arrivalLane="4o_0" arrivalPos="492.80" arrivalSpeed="10.00" duration="80.00" routeLength="990.53" waitingTime="0.00" waitingCount="0" stopTime="0.00" timeLoss="7.64" rerouteNo="0" devices="tripinfo_NS_151" vType="car" speedFactor="0.97" vaporized=""/>
    <tripinfo id="EW_142" depart="142.00" departLane="4i_0" departPos="10.10" departSpeed="0.00" departDelay="0.00" arrival="234.00" arrivalLane="2o_0" arrivalPos="492.80" arrivalSpeed="10.13" duration="92.00" routeLength="989.70" waitingTime="0.00" waitingCount="0" stopTime="0.00" timeLoss="18.14" rerouteNo="0" devices="tripinfo_EW_142" vType="truck" speedFactor="0.95" vaporized=""/>
    <tripinfo id="EW_151" depart="151.00" departLane="4i_0" departPos="4.10" departSpeed="0.00" departDelay="0.00" arrival="234.00" arrivalLane="3o_0" arrivalPos="492.80" arrivalSpeed="11.29" duration="83.00" routeLength="995.90" waitingTime="0.00" waitingCount="0" stopTime="0.00" timeLoss="13.76" rerouteNo="0" devices="tripinfo_EW_151" vType="car" speedFactor="1.02" vaporized=""/>
    <tripinfo id="SN_140" depart="140.00" departLane="3i_0" departPos="10.10" departSpeed="0.00" departDelay="0.00" arrival="235.00" arrivalLane="1o_0" arrivalPos="492.80" arrivalSpeed="10.05" duration="95.00" routeLength="989.70" waitingTime="0.00" waitingCount="0" stopTime="0.00" timeLoss="19.63" rerouteNo="0" devices="tripinfo_SN_140" vType="truck" speedFactor="0.94" vaporized=""/>
    <tripinfo id="SN_147" depart="147.00" departLane="3i_0" departPos="4.10" departSpeed="0.00" departDelay="0.00" arrival="241.00" arrivalLane="4o_0" arrivalPos="492.80" arrivalSpeed="9.05" duration="94.00" routeLength="995.90" waitingTime="0.00" waitingCount="0" stopTime="0.00" timeLoss="16.39" rerouteNo="0" devices="tripinfo_SN_147" vType="car" speedFactor="0.91" vaporized=""/>
    <tripinfo id="WE_151" depart="152.00" departLane="1i_0" departPos="4.10" departSpeed="0.00" departDelay="1.00" arrival="243.00" arrivalLane="4o_0" arrivalPos="492.80" arrivalSpeed="10.71" duration="91.00" routeLength="995.70" waitingTime="5.00" waitingCount="2" stopTime="0.00" timeLoss="21.23" rerouteNo="0" devices="tripinfo_WE_151" vType="car" speedFactor="1.02" vaporized=""/>
    <tripinfo id="NS_153" depart="153.00" departLane="2i_0" departPos="4.10" departSpeed="0.00" departDelay="0.00" arrival="243.00" arrivalLane="1o_0" arrivalPos="492.80" arrivalSpeed="9.19" duration="90.00" routeLength="995.90" waitingTime="0.00" waitingCount="0" stopTime="0.00" timeLoss="14.44" rerouteNo="0" devices="tripinfo_NS_153" vType="car" speedFactor="0.94" vaporized=""/>
    <tripinfo id="SN_166" depart="166.00" departLane="3i_0" departPos="4.10" departSpeed="0.00" departDelay="0.00" arrival="249.00" arrivalLane="1o_0" arrivalPos="492.80" arrivalSpeed="10.01" duration="83.00" routeLength="995.70" waitingTime="0.00" waitingCount="0" stopTime="0.00" timeLoss="11.33" rerouteNo="0" devices="tripinfo_SN_166" vType="car" speedFactor="0.98" vaporized=""/>
    <tripinfo id="WE_164" depart="164.00" departLane="1i_0" departPos="10.10" departSpeed="0.00" departDelay="0.00" arrival="251.00" arrivalLane="4o_0" arrivalPos="492.80" arrivalSpeed="10.90" duration="87.00" routeLength="989.70" waitingTime="0.00" waitingCount="0" stopTime="0.00" timeLoss="18.62" rerouteNo="0" devices="tripinfo_WE_164" vType="truck" speedFactor="1.03" vaporized=""/>
    <tripinfo id="WE_166" depart="168.00" departLane="1i_0" departPos="4.10" departSpeed="0.00" departDelay="2.00" arrival="263.00" arrivalLane="2o_0" arrivalPos="492.80" arrivalSpeed="10.26" duration="95.00" routeLength="995.90" waitingTime="2.00" waitingCount="1" stopTime="0.00" timeLoss="21.03" rerouteNo="0" devices="tripinfo_WE_166" vType="car" speedFactor="0.96" vaporized=""/>