<?xml version="1.0" encoding="UTF-8"?>

<!-- generated on 2024-05-01 20:18:30 by Eclipse SUMO GUI Version 1.19.0
<configuration xmlns:xsi="http://www.w3.org/2001/XMLSchema-instance" xsi:noNamespaceSchemaLocation="http://sumo.dlr.de/xsd/sumoConfiguration.xsd">

    <input>
        <net-file value="../../test3/twoone/twoone.net.xml"/>
    </input>

    <output>
        <tripinfo-output value="tripinfo_dqn.xml"/>
    </output>

    <traci_server>
        <remote-port value="41991"/>
    </traci_server>

</configuration>
-->

<tripinfos xmlns:xsi="http://www.w3.org/2001/XMLSchema-instance" xsi:noNamespaceSchemaLocation="http://sumo.dlr.de/xsd/tripinfo_file.xsd">
</tripinfos>
