<?xml version="1.0" encoding="UTF-8"?>

<!-- generated on 2024-05-05 22:15:48 by Eclipse SUMO sumo Version 1.19.0
<configuration xmlns:xsi="http://www.w3.org/2001/XMLSchema-instance" xsi:noNamespaceSchemaLocation="http://sumo.dlr.de/xsd/sumoConfiguration.xsd">

    <input>
        <net-file value="twoone.net.xml"/>
        <route-files value="route_gen.rou.xml"/>
    </input>

    <output>
        <tripinfo-output value="tripinfo_epi244.xml"/>
    </output>

    <report>
        <no-warnings value="true"/>
    </report>

    <traci_server>
        <remote-port value="44869"/>
    </traci_server>

</configuration>
-->

<tripinfos xmlns:xsi="http://www.w3.org/2001/XMLSchema-instance" xsi:noNamespaceSchemaLocation="http://sumo.dlr.de/xsd/tripinfo_file.xsd">
    <tripinfo id="WE_2" depart="2.00" departLane="1i_0" departPos="4.10" departSpeed="0.00" departDelay="0.00" arrival="77.00" arrivalLane="2o_0" arrivalPos="492.80" arrivalSpeed="11.67" duration="75.00" routeLength="995.90" waitingTime="0.00" waitingCount="0" stopTime="0.00" timeLoss="7.20" rerouteNo="0" devices="tripinfo_WE_2" vType="car" speedFactor="1.06" vaporized=""/>
    <tripinfo id="WE_8" depart="8.00" departLane="1i_0" departPos="4.10" departSpeed="0.00" departDelay="0.00" arrival="91.00" arrivalLane="3o_0" arrivalPos="492.80" arrivalSpeed="9.53" duration="83.00" routeLength="990.53" waitingTime="0.00" waitingCount="0" stopTime="0.00" timeLoss="7.44" rerouteNo="0" devices="tripinfo_WE_8" vType="car" speedFactor="0.94" vaporized=""/>
    <tripinfo id="NS_13" depart="13.00" departLane="2i_0" departPos="4.10" departSpeed="0.00" departDelay="0.00" arrival="92.00" arrivalLane="3o_0" arrivalPos="492.80" arrivalSpeed="10.51" duration="79.00" routeLength="995.70" waitingTime="0.00" waitingCount="0" stopTime="0.00" timeLoss="10.39" rerouteNo="0" devices="tripinfo_NS_13" vType="car" speedFactor="1.03" vaporized=""/>
    <tripinfo id="EW_12" depart="12.00" departLane="4i_0" departPos="4.10" departSpeed="0.00" departDelay="0.00" arrival="107.00" arrivalLane="3o_0" arrivalPos="492.80" arrivalSpeed="11.31" duration="95.00" routeLength="995.90" waitingTime="15.00" waitingCount="1" stopTime="0.00" timeLoss="29.68" rerouteNo="0" devices="tripinfo_EW_12" vType="car" speedFactor="1.08" vaporized=""/>
    <tripinfo id="SN_10" depart="10.00" departLane="3i_0" departPos="10.10" departSpeed="0.00" departDelay="0.00" arrival="117.00" arrivalLane="1o_0" arrivalPos="492.80" arrivalSpeed="10.82" duration="107.00" routeLength="989.70" waitingTime="12.00" waitingCount="1" stopTime="0.00" timeLoss="36.26" rerouteNo="0" devices="tripinfo_SN_10" vType="truck" speedFactor="1.01" vaporized=""/>
    <tripinfo id="NS_34" depart="34.00" departLane="2i_0" departPos="4.10" departSpeed="0.00" departDelay="0.00" arrival="127.00" arrivalLane="1o_0" arrivalPos="492.80" arrivalSpeed="9.77" duration="93.00" routeLength="995.90" waitingTime="0.00" waitingCount="0" stopTime="0.00" timeLoss="12.66" rerouteNo="0" devices="tripinfo_NS_34" vType="car" speedFactor="0.89" vaporized=""/>
    <tripinfo id="NS_40" depart="40.00" departLane="2i_0" departPos="4.10" departSpeed="0.00" departDelay="0.00" arrival="131.00" arrivalLane="4o_0" arrivalPos="492.80" arrivalSpeed="9.32" duration="91.00" routeLength="990.53" waitingTime="0.00" waitingCount="0" stopTime="0.00" timeLoss="8.91" rerouteNo="0" devices="tripinfo_NS_40" vType="car" speedFactor="0.86" vaporized=""/>
    <tripinfo id="NS_46" depart="46.00" departLane="2i_0" departPos="4.10" departSpeed="0.00" departDelay="0.00" arrival="133.00" arrivalLane="4o_0" arrivalPos="492.80" arrivalSpeed="11.23" duration="87.00" routeLength="990.53" waitingTime="0.00" waitingCount="0" stopTime="0.00" timeLoss="23.63" rerouteNo="0" devices="tripinfo_NS_46" vType="car" speedFactor="1.12" vaporized=""/>
    <tripinfo id="WE_41" depart="41.00" departLane="1i_0" departPos="4.10" departSpeed="0.00" departDelay="0.00" arrival="134.00" arrivalLane="4o_0" arrivalPos="492.80" arrivalSpeed="11.23" duration="93.00" routeLength="995.70" waitingTime="3.00" waitingCount="1" stopTime="0.00" timeLoss="28.19" rerouteNo="0" devices="tripinfo_WE_41" vType="car" speedFactor="1.09" vaporized=""/>
    <tripinfo id="WE_69" depart="69.00" departLane="1i_0" departPos="4.10" departSpeed="0.00" departDelay="0.00" arrival="153.00" arrivalLane="2o_0" arrivalPos="492.80" arrivalSpeed="9.66" duration="84.00" routeLength="995.90" waitingTime="0.00" waitingCount="0" stopTime="0.00" timeLoss="7.75" rerouteNo="0" devices="tripinfo_WE_69" vType="car" speedFactor="0.94" vaporized=""/>
    <tripinfo id="NS_77" depart="77.00" departLane="2i_0" departPos="4.10" departSpeed="0.00" departDelay="0.00" arrival="155.00" arrivalLane="1o_0" arrivalPos="492.80" arrivalSpeed="10.79" duration="78.00" routeLength="995.90" waitingTime="0.00" waitingCount="0" stopTime="0.00" timeLoss="8.33" rerouteNo="0" devices="tripinfo_NS_77" vType="car" speedFactor="1.02" vaporized=""/>
    <tripinfo id="WE_78" depart="78.00" departLane="1i_0" departPos="4.10" departSpeed="0.00" departDelay="0.00" arrival="156.00" arrivalLane="3o_0" arrivalPos="492.80" arrivalSpeed="11.01" duration="78.00" routeLength="990.53" waitingTime="0.00" waitingCount="0" stopTime="0.00" timeLoss="8.11" rerouteNo="0" devices="tripinfo_WE_78" vType="car" speedFactor="1.01" vaporized=""/>
    <tripinfo id="NS_83" depart="83.00" departLane="2i_0" departPos="4.10" departSpeed="0.00" departDelay="0.00" arrival="164.00" arrivalLane="4o_0" arrivalPos="492.80" arrivalSpeed="9.93" duration="81.00" routeLength="990.53" waitingTime="0.00" waitingCount="0" stopTime="0.00" timeLoss="8.13" rerouteNo="0" devices="tripinfo_NS_83" vType="car" speedFactor="0.97" vaporized=""/>
    <tripinfo id="WE_84" depart="84.00" departLane="1i_0" departPos="4.10" departSpeed="0.00" departDelay="0.00" arrival="173.00" arrivalLane="4o_0" arrivalPos="492.80" arrivalSpeed="8.80" duration="89.00" routeLength="995.70" waitingTime="0.00" waitingCount="0" stopTime="0.00" timeLoss="9.51" rerouteNo="0" devices="tripinfo_WE_84" vType="car" speedFactor="0.89" vaporized=""/>
    <tripinfo id="WE_89" depart="89.00" departLane="1i_0" departPos="4.10" departSpeed="0.00" departDelay="0.00" arrival="174.00" arrivalLane="3o_0" arrivalPos="492.80" arrivalSpeed="9.02" duration="85.00" routeLength="990.53" waitingTime="0.00" waitingCount="0" stopTime="0.00" timeLoss="8.21" rerouteNo="0" devices="tripinfo_WE_89" vType="car" speedFactor="0.92" vaporized=""/>
    <tripinfo id="NS_99" depart="99.00" departLane="2i_0" departPos="4.10" departSpeed="0.00" departDelay="0.00" arrival="175.00" arrivalLane="4o_0" arrivalPos="492.80" arrivalSpeed="12.31" duration="76.00" routeLength="990.53" waitingTime="0.00" waitingCount="0" stopTime="0.00" timeLoss="13.48" rerouteNo="0" devices="tripinfo_NS_99" vType="car" speedFactor="1.13" vaporized=""/>
    <tripinfo id="WE_100" depart="100.00" departLane="1i_0" departPos="4.10" departSpeed="0.00" departDelay="0.00" arrival="176.00" arrivalLane="3o_0" arrivalPos="492.80" arrivalSpeed="12.84" duration="76.00" routeLength="990.53" waitingTime="0.00" waitingCount="0" stopTime="0.00" timeLoss="15.57" rerouteNo="0" devices="tripinfo_WE_100" vType="car" speedFactor="1.18" vaporized=""/>
    <tripinfo id="NS_101" depart="102.00" departLane="2i_0" departPos="4.10" departSpeed="0.00" departDelay="1.00" arrival="180.00" arrivalLane="4o_0" arrivalPos="492.80" arrivalSpeed="10.87" duration="78.00" routeLength="990.53" waitingTime="0.00" waitingCount="0" stopTime="0.00" timeLoss="7.89" rerouteNo="0" devices="tripinfo_NS_101" vType="car" speedFactor="1.01" vaporized=""/>
    <tripinfo id="NS_106" depart="106.00" departLane="2i_0" departPos="4.10" departSpeed="0.00" departDelay="0.00" arrival="185.00" arrivalLane="1o_0" arrivalPos="492.80" arrivalSpeed="10.57" duration="79.00" routeLength="995.90" waitingTime="0.00" waitingCount="0" stopTime="0.00" timeLoss="7.27" rerouteNo="0" devices="tripinfo_NS_106" vType="car" speedFactor="0.99" vaporized=""/>
    <tripinfo id="WE_116" depart="117.00" departLane="1i_0" departPos="4.10" departSpeed="0.00" departDelay="1.00" arrival="185.00" arrivalLane="2o_0" arrivalPos="492.80" arrivalSpeed="12.84" duration="68.00" routeLength="995.90" waitingTime="0.00" waitingCount="0" stopTime="0.00" timeLoss="8.06" rerouteNo="0" devices="tripinfo_WE_116" vType="car" speedFactor="1.18" vaporized=""/>
    <tripinfo id="NS_128" depart="128.00" departLane="2i_0" departPos="4.10" departSpeed="0.00" departDelay="0.00" arrival="205.00" arrivalLane="3o_0" arrivalPos="492.80" arrivalSpeed="11.26" duration="77.00" routeLength="995.70" waitingTime="0.00" waitingCount="0" stopTime="0.00" timeLoss="11.45" rerouteNo="0" devices="tripinfo_NS_128" vType="car" speedFactor="1.09" vaporized=""/>
    <tripinfo id="NS_130" depart="131.00" departLane="2i_0" departPos="4.10" departSpeed="0.00" departDelay="1.00" arrival="208.00" arrivalLane="4o_0" arrivalPos="492.80" arrivalSpeed="11.39" duration="77.00" routeLength="990.53" waitingTime="0.00" waitingCount="0" stopTime="0.00" timeLoss="8.82" rerouteNo="0" devices="tripinfo_NS_130" vType="car" speedFactor="1.04" vaporized=""/>
    <tripinfo id="WE_128" depart="128.00" departLane="1i_0" departPos="4.10" departSpeed="0.00" departDelay="0.00" arrival="214.00" arrivalLane="4o_0" arrivalPos="492.80" arrivalSpeed="10.42" duration="86.00" routeLength="995.70" waitingTime="0.00" waitingCount="0" stopTime="0.00" timeLoss="12.18" rerouteNo="0" devices="tripinfo_WE_128" vType="car" speedFactor="0.96" vaporized=""/>
    <tripinfo id="WE_136" depart="136.00" departLane="1i_0" departPos="4.10" departSpeed="0.00" departDelay="0.00" arrival="216.00" arrivalLane="4o_0" arrivalPos="492.80" arrivalSpeed="11.09" duration="80.00" routeLength="995.70" waitingTime="0.00" waitingCount="0" stopTime="0.00" timeLoss="14.69" rerouteNo="0" devices="tripinfo_WE_136" vType="car" speedFactor="1.09" vaporized=""/>
    <tripinfo id="WE_140" depart="140.00" departLane="1i_0" departPos="4.10" departSpeed="0.00" departDelay="0.00" arrival="229.00" arrivalLane="4o_0" arrivalPos="492.80" arrivalSpeed="8.94" duration="89.00" routeLength="995.70" waitingTime="0.00" waitingCount="0" stopTime="0.00" timeLoss="10.21" rerouteNo="0" devices="tripinfo_WE_140" vType="car" speedFactor="0.90" vaporized=""/>
    <tripinfo id="WE_159" depart="159.00" departLane="1i_0" departPos="4.10" departSpeed="0.00" departDelay="0.00" arrival="236.00" arrivalLane="2o_0" arrivalPos="492.80" arrivalSpeed="10.56" duration="77.00" routeLength="995.90" waitingTime="0.00" waitingCount="0" stopTime="0.00" timeLoss="7.42" rerouteNo="0" devices="tripinfo_WE_159" vType="car" speedFactor="1.02" vaporized=""/>
    <tripinfo id="WE_169" depart="169.00" departLane="1i_0" departPos="4.10" departSpeed="0.00" departDelay="0.00" arrival="240.00" arrivalLane="2o_0" arrivalPos="492.80" arrivalSpeed="12.40" duration="71.00" routeLength="995.90" waitingTime="0.00" waitingCount="0" stopTime="0.00" timeLoss="8.46" rerouteNo="0" devices="tripinfo_WE_169" vType="car" speedFactor="1.14" vaporized=""/>
    <tripinfo id="NS_149" depart="149.00" departLane="2i_0" departPos="4.10" departSpeed="0.00" departDelay="0.00" arrival="242.00" arrivalLane="3o_0" arrivalPos="492.80" arrivalSpeed="9.15" duration="93.00" routeLength="995.70" waitingTime="0.00" waitingCount="0" stopTime="0.00" timeLoss="9.83" rerouteNo="0" devices="tripinfo_NS_149" vType="car" speedFactor="0.85" vaporized=""/>
    <tripinfo id="NS_160" depart="160.00" departLane="2i_0" departPos="4.10" departSpeed="0.00" departDelay="0.00" arrival="244.00" arrivalLane="3o_0" arrivalPos="492.80" arrivalSpeed="10.00" duration="84.00" routeLength="995.70" waitingTime="0.00" waitingCount="0" stopTime="0.00" timeLoss="13.24" rerouteNo="0" devices="tripinfo_NS_160" vType="car" speedFactor="1.00" vaporized=""/>
    <tripinfo id="WE_172" depart="172.00" departLane="1i_0" departPos="4.10" departSpeed="0.00" departDelay="0.00" arrival="251.00" arrivalLane="4o_0" arrivalPos="492.80" arrivalSpeed="11.03" duration="79.00" routeLength="995.70" waitingTime="0.00" waitingCount="0" stopTime="0.00" timeLoss="9.80" rerouteNo="0" devices="tripinfo_WE_172" vType="car" speedFactor="1.02" vaporized=""/>
    <tripinfo id="NS_173" depart="173.00" departLane="2i_0" departPos="10.10" departSpeed="0.00" departDelay="0.00" arrival="258.00" arrivalLane="3o_0" arrivalPos="492.80" arrivalSpeed="11.19" duration="85.00" routeLength="989.70" waitingTime="0.00" waitingCount="0" stopTime="0.00" timeLoss="16.81" rerouteNo="0" devices="tripinfo_NS_173" vType="truck" speedFactor="1.04" vaporized=""/>
    <tripinfo id="NS_176" depart="177.00" departLane="2i_0" departPos="4.10" departSpeed="0.00" departDelay="1.00" arrival="263.00" arrivalLane="3o_0" arrivalPos="492.80" arrivalSpeed="11.26" duration="86.00" routeLength="995.70" waitingTime="0.00" waitingCount="0" stopTime="0.00" timeLoss="15.75" rerouteNo="0" devices="tripinfo_NS_176" vType="car" speedFactor="1.02" vaporized=""/>
    <tripinfo id="NS_178" depart="180.00" departLane="2i_0" departPos="4.10" departSpeed="0.00" departDelay="2.00" arrival="267.00" arrivalLane="3o_0" arrivalPos="492.80" arrivalSpeed="10.82" duration="87.00" routeLength="995.70" waitingTime="0.00" waitingCount="0" stopTime="0.00" timeLoss="14.82" rerouteNo="0" devices="tripinfo_NS_178" vType="car" speedFactor="0.99" vaporized=""/>
    <tripinfo id="NS_179" depart="182.00" departLane="2i_0" departPos="4.10" departSpeed="0.00" departDelay="3.00" arrival="271.00" arrivalLane="4o_0" arrivalPos="492.80" arrivalSpeed="9.64" duration="89.00" routeLength="990.53" waitingTime="0.00" waitingCount="0" stopTime="0.00" timeLoss="13.46" rerouteNo="0" devices="tripinfo_NS_179" vType="car" speedFactor="0.94" vaporized=""/>
    <tripinfo id="WE_196" depart="196.00" departLane="1i_0" departPos="4.10" departSpeed="0.00" departDelay="0.00" arrival="272.00" arrivalLane="2o_0" arrivalPos="492.80" arrivalSpeed="11.49" duration="76.00" routeLength="995.90" waitingTime="0.00" waitingCount="0" stopTime="0.00" timeLoss="8.25" rerouteNo="0" devices="tripinfo_WE_196" vType="car" speedFactor="1.06" vaporized=""/>
    <tripinfo id="NS_187" depart="189.00" departLane="2i_0" departPos="4.10" departSpeed="0.00" departDelay="2.00" arrival="273.00" arrivalLane="4o_0" arrivalPos="492.80" arrivalSpeed="10.61" duration="84.00" routeLength="990.53" waitingTime="0.00" waitingCount="0" stopTime="0.00" timeLoss="15.79" rerouteNo="0" devices="tripinfo_NS_187" vType="car" speedFactor="1.04" vaporized=""/>
    <tripinfo id="NS_189" depart="192.00" departLane="2i_0" departPos="4.10" departSpeed="0.00" departDelay="3.00" arrival="275.00" arrivalLane="4o_0" arrivalPos="492.80" arrivalSpeed="10.39" duration="83.00" routeLength="990.53" waitingTime="0.00" waitingCount="0" stopTime="0.00" timeLoss="13.56" rerouteNo="0" devices="tripinfo_NS_189" vType="car" speedFactor="1.02" vaporized=""/>
    <tripinfo id="NS_184" depart="186.00" departLane="2i_0" departPos="4.10" departSpeed="0.00" departDelay="2.00" arrival="276.00" arrivalLane="3o_0" arrivalPos="492.80" arrivalSpeed="9.95" duration="90.00" routeLength="995.70" waitingTime="0.00" waitingCount="0" stopTime="0.00" timeLoss="12.03" rerouteNo="0" devices="tripinfo_NS_184" vType="car" speedFactor="0.91" vaporized=""/>
    <tripinfo id="EW_32" depart="32.00" departLane="4i_0" departPos="4.10" departSpeed="0.00" departDelay="0.00" arrival="287.00" arrivalLane="3o_0" arrivalPos="492.80" arrivalSpeed="10.40" duration="255.00" routeLength="995.90" waitingTime="169.00" waitingCount="1" stopTime="0.00" timeLoss="186.67" rerouteNo="0" devices="tripinfo_EW_32" vType="car" speedFactor="1.05" vaporized=""/>
    <tripinfo id="SN_34" depart="34.00" departLane="3i_0" departPos="10.10" departSpeed="0.00" departDelay="0.00" arrival="289.00" arrivalLane="2o_0" arrivalPos="492.80" arrivalSpeed="10.33" duration="255.00" routeLength="984.53" waitingTime="162.00" waitingCount="1" stopTime="0.00" timeLoss="181.95" rerouteNo="0" devices="tripinfo_SN_34" vType="truck" speedFactor="0.97" vaporized=""/>
    <tripinfo id="SN_60" depart="60.00" departLane="3i_0" departPos="4.10" departSpeed="0.00" departDelay="0.00" arrival="291.00" arrivalLane="2o_0" arrivalPos="492.80" arrivalSpeed="10.58" duration="231.00" routeLength="990.53" waitingTime="143.00" waitingCount="1" stopTime="0.00" timeLoss="159.98" rerouteNo="0" devices="tripinfo_SN_60" vType="car" speedFactor="0.99" vaporized=""/>
    <tripinfo id="EW_26" depart="26.00" departLane="4i_0" departPos="4.10" departSpeed="0.00" departDelay="0.00" arrival="296.00" arrivalLane="1o_0" arrivalPos="492.80" arrivalSpeed="8.11" duration="270.00" routeLength="990.53" waitingTime="170.00" waitingCount="1" stopTime="0.00" timeLoss="185.11" rerouteNo="0" devices="tripinfo_EW_26" vType="car" speedFactor="0.83" vaporized=""/>
    <tripinfo id="EW_42" depart="42.00" departLane="4i_0" departPos="4.10" departSpeed="0.00" departDelay="0.00" arrival="298.00" arrivalLane="1o_0" arrivalPos="492.80" arrivalSpeed="10.85" duration="256.00" routeLength="990.53" waitingTime="162.00" waitingCount="1" stopTime="0.00" timeLoss="186.73" rerouteNo="0" devices="tripinfo_EW_42" vType="car" speedFactor="1.03" vaporized=""/>
    <tripinfo id="SN_96" depart="96.00" departLane="3i_0" departPos="4.10" departSpeed="0.00" departDelay="0.00" arrival="298.00" arrivalLane="2o_0" arrivalPos="492.80" arrivalSpeed="10.43" duration="202.00" routeLength="990.53" waitingTime="109.00" waitingCount="1" stopTime="0.00" timeLoss="128.01" rerouteNo="0" devices="tripinfo_SN_96" vType="car" speedFactor="0.95" vaporized=""/>
    <tripinfo id="SN_67" depart="67.00" departLane="3i_0" departPos="4.10" departSpeed="0.00" departDelay="0.00" arrival="300.00" arrivalLane="4o_0" arrivalPos="492.80" arrivalSpeed="9.60" duration="233.00" routeLength="995.90" waitingTime="135.00" waitingCount="1" stopTime="0.00" timeLoss="152.07" rerouteNo="0" devices="tripinfo_SN_67" vType="car" speedFactor="0.88" vaporized=""/>
    <tripinfo id="SN_99" depart="100.00" departLane="3i_0" departPos="10.10" departSpeed="0.00" departDelay="1.00" arrival="301.00" arrivalLane="2o_0" arrivalPos="492.80" arrivalSpeed="10.65" duration="201.00" routeLength="984.53" waitingTime="102.00" waitingCount="1" stopTime="0.00" timeLoss="128.04" rerouteNo="0" devices="tripinfo_SN_99" vType="truck" speedFactor="0.97" vaporized=""/>
    <tripinfo id="SN_86" depart="86.00" departLane="3i_0" departPos="4.10" departSpeed="0.00" departDelay="0.00" arrival="302.00" arrivalLane="4o_0" arrivalPos="492.80" arrivalSpeed="8.90" duration="216.00" routeLength="995.90" waitingTime="117.00" waitingCount="1" stopTime="0.00" timeLoss="134.89" rerouteNo="0" devices="tripinfo_SN_86" vType="car" speedFactor="0.87" vaporized=""/>
    <tripinfo id="EW_45" depart="45.00" departLane="4i_0" departPos="4.10" departSpeed="0.00" departDelay="0.00" arrival="303.00" arrivalLane="2o_0" arrivalPos="492.80" arrivalSpeed="11.06" duration="258.00" routeLength="995.70" waitingTime="165.00" waitingCount="2" stopTime="0.00" timeLoss="190.40" rerouteNo="0" devices="tripinfo_EW_45" vType="car" speedFactor="1.05" vaporized=""/>
    <tripinfo id="WE_201" depart="201.00" departLane="1i_0" departPos="10.10" departSpeed="0.00" departDelay="0.00" arrival="305.00" arrivalLane="3o_0" arrivalPos="492.80" arrivalSpeed="10.52" duration="104.00" routeLength="984.53" waitingTime="15.00" waitingCount="1" stopTime="0.00" timeLoss="31.67" rerouteNo="0" devices="tripinfo_WE_201" vType="truck" speedFactor="0.98" vaporized=""/>
    <tripinfo id="SN_103" depart="104.00" departLane="3i_0" departPos="4.10" departSpeed="0.00" departDelay="1.00" arrival="310.00" arrivalLane="1o_0" arrivalPos="492.80" arrivalSpeed="12.39" duration="206.00" routeLength="995.70" waitingTime="109.00" waitingCount="2" stopTime="0.00" timeLoss="145.57" rerouteNo="0" devices="tripinfo_SN_103" vType="car" speedFactor="1.17" vaporized=""/>
    <tripinfo id="NS_207" depart="207.00" departLane="2i_0" departPos="10.10" departSpeed="0.00" departDelay="0.00" arrival="311.00" arrivalLane="3o_0" arrivalPos="492.80" arrivalSpeed="10.86" duration="104.00" routeLength="989.70" waitingTime="10.00" waitingCount="2" stopTime="0.00" timeLoss="32.87" rerouteNo="0" devices="tripinfo_NS_207" vType="truck" speedFactor="0.99" vaporized=""/>
    <tripinfo id="WE_224" depart="224.00" departLane="1i_0" departPos="4.10" departSpeed="0.00" departDelay="0.00" arrival="312.00" arrivalLane="4o_0" arrivalPos="492.80" arrivalSpeed="11.42" duration="88.00" routeLength="995.70" waitingTime="4.00" waitingCount="1" stopTime="0.00" timeLoss="19.43" rerouteNo="0" devices="tripinfo_WE_224" vType="car" speedFactor="1.03" vaporized=""/>
    <tripinfo id="NS_220" depart="220.00" departLane="2i_0" departPos="4.10" departSpeed="0.00" departDelay="0.00" arrival="316.00" arrivalLane="1o_0" arrivalPos="492.80" arrivalSpeed="11.87" duration="96.00" routeLength="995.90" waitingTime="8.00" waitingCount="4" stopTime="0.00" timeLoss="30.51" rerouteNo="0" devices="tripinfo_NS_220" vType="car" speedFactor="1.09" vaporized=""/>
    <tripinfo id="EW_62" depart="62.00" departLane="4i_0" departPos="4.10" departSpeed="0.00" departDelay="0.00" arrival="321.00" arrivalLane="2o_0" arrivalPos="492.80" arrivalSpeed="9.54" duration="259.00" routeLength="995.70" waitingTime="157.00" waitingCount="4" stopTime="0.00" timeLoss="182.15" rerouteNo="0" devices="tripinfo_EW_62" vType="car" speedFactor="0.93" vaporized=""/>
    <tripinfo id="NS_230" depart="230.00" departLane="2i_0" departPos="4.10" departSpeed="0.00" departDelay="0.00" arrival="321.00" arrivalLane="1o_0" arrivalPos="492.80" arrivalSpeed="10.06" duration="91.00" routeLength="995.90" waitingTime="2.00" waitingCount="1" stopTime="0.00" timeLoss="21.24" rerouteNo="0" devices="tripinfo_NS_230" vType="car" speedFactor="1.02" vaporized=""/>
    <tripinfo id="WE_237" depart="237.00" departLane="1i_0" departPos="4.10" departSpeed="0.00" departDelay="0.00" arrival="322.00" arrivalLane="2o_0" arrivalPos="492.80" arrivalSpeed="10.87" duration="85.00" routeLength="995.90" waitingTime="0.00" waitingCount="0" stopTime="0.00" timeLoss="14.43" rerouteNo="0" devices="tripinfo_WE_237" vType="car" speedFactor="1.00" vaporized=""/>
    <tripinfo id="WE_247" depart="247.00" departLane="1i_0" departPos="4.10" departSpeed="0.00" departDelay="0.00" arrival="327.00" arrivalLane="4o_0" arrivalPos="492.80" arrivalSpeed="11.02" duration="80.00" routeLength="995.70" waitingTime="0.00" waitingCount="0" stopTime="0.00" timeLoss="11.54" rerouteNo="0" devices="tripinfo_WE_247" vType="car" speedFactor="1.04" vaporized=""/>
    <tripinfo id="NS_268" depart="268.00" departLane="2i_0" departPos="4.10" departSpeed="0.00" departDelay="0.00" arrival="343.00" arrivalLane="1o_0" arrivalPos="492.80" arrivalSpeed="10.77" duration="75.00" routeLength="995.90" waitingTime="0.00" waitingCount="0" stopTime="0.00" timeLoss="7.29" rerouteNo="0" devices="tripinfo_NS_268" vType="car" speedFactor="1.06" vaporized=""/>
    <tripinfo id="NS_256" depart="256.00" departLane="2i_0" departPos="4.10" departSpeed="0.00" departDelay="0.00" arrival="344.00" arrivalLane="4o_0" arrivalPos="492.80" arrivalSpeed="8.63" duration="88.00" routeLength="990.53" waitingTime="0.00" waitingCount="0" stopTime="0.00" timeLoss="9.03" rerouteNo="0" devices="tripinfo_NS_256" vType="car" speedFactor="0.89" vaporized=""/>
    <tripinfo id="EW_101" depart="101.00" departLane="4i_0" departPos="4.10" departSpeed="0.00" departDelay="0.00" arrival="353.00" arrivalLane="1o_0" arrivalPos="492.80" arrivalSpeed="11.74" duration="252.00" routeLength="990.53" waitingTime="152.00" waitingCount="4" stopTime="0.00" timeLoss="190.61" rerouteNo="0" devices="tripinfo_EW_101" vType="car" speedFactor="1.15" vaporized=""/>
    <tripinfo id="NS_270" depart="272.00" departLane="2i_0" departPos="4.10" departSpeed="0.00" departDelay="2.00" arrival="354.00" arrivalLane="4o_0" arrivalPos="492.80" arrivalSpeed="11.08" duration="82.00" routeLength="990.53" waitingTime="1.00" waitingCount="1" stopTime="0.00" timeLoss="11.36" rerouteNo="0" devices="tripinfo_NS_270" vType="car" speedFactor="1.01" vaporized=""/>
    <tripinfo id="EW_68" depart="68.00" departLane="4i_0" departPos="4.10" departSpeed="0.00" departDelay="0.00" arrival="357.00" arrivalLane="3o_0" arrivalPos="492.80" arrivalSpeed="9.17" duration="289.00" routeLength="995.90" waitingTime="182.00" waitingCount="4" stopTime="0.00" timeLoss="213.32" rerouteNo="0" devices="tripinfo_EW_68" vType="car" speedFactor="0.94" vaporized=""/>
    <tripinfo id="EW_69" depart="71.00" departLane="4i_0" departPos="4.10" departSpeed="0.00" departDelay="2.00" arrival="358.00" arrivalLane="3o_0" arrivalPos="492.80" arrivalSpeed="11.88" duration="287.00" routeLength="995.90" waitingTime="181.00" waitingCount="4" stopTime="0.00" timeLoss="225.80" rerouteNo="0" devices="tripinfo_EW_69" vType="car" speedFactor="1.16" vaporized=""/>
    <tripinfo id="EW_109" depart="109.00" departLane="4i_0" departPos="4.10" departSpeed="0.00" departDelay="0.00" arrival="361.00" arrivalLane="1o_0" arrivalPos="492.80" arrivalSpeed="11.12" duration="252.00" routeLength="990.53" waitingTime="143.00" waitingCount="5" stopTime="0.00" timeLoss="182.43" rerouteNo="0" devices="tripinfo_EW_109" vType="car" speedFactor="1.02" vaporized=""/>
    <tripinfo id="EW_151" depart="153.00" departLane="4i_0" departPos="4.10" departSpeed="0.00" departDelay="2.00" arrival="366.00" arrivalLane="3o_0" arrivalPos="492.80" arrivalSpeed="12.31" duration="213.00" routeLength="995.90" waitingTime="100.00" waitingCount="4" stopTime="0.00" timeLoss="151.95" rerouteNo="0" devices="tripinfo_EW_151" vType="car" speedFactor="1.17" vaporized=""/>
    <tripinfo id="EW_86" depart="86.00" departLane="4i_0" departPos="4.10" departSpeed="0.00" departDelay="0.00" arrival="369.00" arrivalLane="2o_0" arrivalPos="492.80" arrivalSpeed="7.91" duration="283.00" routeLength="995.70" waitingTime="163.00" waitingCount="4" stopTime="0.00" timeLoss="196.87" rerouteNo="0" devices="tripinfo_EW_86" vType="car" speedFactor="0.83" vaporized=""/>
    <tripinfo id="EW_115" depart="115.00" departLane="4i_0" departPos="4.10" departSpeed="0.00" departDelay="0.00" arrival="370.00" arrivalLane="2o_0" arrivalPos="492.80" arrivalSpeed="10.27" duration="255.00" routeLength="995.70" waitingTime="136.00" waitingCount="4" stopTime="0.00" timeLoss="182.43" rerouteNo="0" devices="tripinfo_EW_115" vType="car" speedFactor="0.97" vaporized=""/>
    <tripinfo id="EW_126" depart="126.00" departLane="4i_0" departPos="4.10" departSpeed="0.00" departDelay="0.00" arrival="372.00" arrivalLane="2o_0" arrivalPos="492.80" arrivalSpeed="9.21" duration="246.00" routeLength="995.70" waitingTime="128.00" waitingCount="6" stopTime="0.00" timeLoss="167.57" rerouteNo="0" devices="tripinfo_EW_126" vType="car" speedFactor="0.90" vaporized=""/>
    <tripinfo id="EW_137" depart="137.00" departLane="4i_0" departPos="4.10" departSpeed="0.00" departDelay="0.00" arrival="374.00" arrivalLane="2o_0" arrivalPos="492.80" arrivalSpeed="10.11" duration="237.00" routeLength="995.70" waitingTime="118.00" waitingCount="4" stopTime="0.00" timeLoss="165.86" rerouteNo="0" devices="tripinfo_EW_137" vType="car" speedFactor="1.00" vaporized=""/>
    <tripinfo id="EW_172" depart="173.00" departLane="4i_0" departPos="4.10" departSpeed="0.00" departDelay="1.00" arrival="377.00" arrivalLane="2o_0" arrivalPos="492.80" arrivalSpeed="9.99" duration="204.00" routeLength="995.70" waitingTime="83.00" waitingCount="3" stopTime="0.00" timeLoss="130.58" rerouteNo="0" devices="tripinfo_EW_172" vType="car" speedFactor="0.97" vaporized=""/>
    <tripinfo id="EW_189" depart="189.00" departLane="4i_0" departPos="4.10" departSpeed="0.00" departDelay="0.00" arrival="379.00" arrivalLane="2o_0" arrivalPos="492.80" arrivalSpeed="11.18" duration="190.00" routeLength="995.70" waitingTime="69.00" waitingCount="3" stopTime="0.00" timeLoss="120.03" rerouteNo="0" devices="tripinfo_EW_189" vType="car" speedFactor="1.02" vaporized=""/>
    <tripinfo id="EW_150" depart="150.00" departLane="4i_0" departPos="4.10" departSpeed="0.00" departDelay="0.00" arrival="380.00" arrivalLane="1o_0" arrivalPos="492.80" arrivalSpeed="9.49" duration="230.00" routeLength="990.53" waitingTime="102.00" waitingCount="3" stopTime="0.00" timeLoss="147.05" rerouteNo="0" devices="tripinfo_EW_150" vType="car" speedFactor="0.85" vaporized=""/>
    <tripinfo id="EW_226" depart="226.00" departLane="4i_0" departPos="4.10" departSpeed="0.00" departDelay="0.00" arrival="383.00" arrivalLane="2o_0" arrivalPos="492.80" arrivalSpeed="11.00" duration="157.00" routeLength="995.70" waitingTime="33.00" waitingCount="3" stopTime="0.00" timeLoss="85.37" rerouteNo="0" devices="tripinfo_EW_226" vType="car" speedFactor="1.00" vaporized=""/>
    <tripinfo id="EW_181" depart="181.00" departLane="4i_0" departPos="4.10" departSpeed="0.00" departDelay="0.00" arrival="384.00" arrivalLane="3o_0" arrivalPos="492.80" arrivalSpeed="9.51" duration="203.00" routeLength="995.90" waitingTime="74.00" waitingCount="4" stopTime="0.00" timeLoss="122.15" rerouteNo="0" devices="tripinfo_EW_181" vType="car" speedFactor="0.88" vaporized=""/>
    <tripinfo id="EW_233" depart="233.00" departLane="4i_0" departPos="4.10" departSpeed="0.00" departDelay="0.00" arrival="386.00" arrivalLane="3o_0" arrivalPos="492.80" arrivalSpeed="9.46" duration="153.00" routeLength="995.90" waitingTime="31.00" waitingCount="2" stopTime="0.00" timeLoss="79.83" rerouteNo="0" devices="tripinfo_EW_233" vType="car" speedFactor="0.97" vaporized=""/>