<?xml version="1.0" encoding="UTF-8"?>

<!-- generated on 2024-05-05 22:30:21 by Eclipse SUMO sumo Version 1.19.0
<configuration xmlns:xsi="http://www.w3.org/2001/XMLSchema-instance" xsi:noNamespaceSchemaLocation="http://sumo.dlr.de/xsd/sumoConfiguration.xsd">

    <input>
        <net-file value="twoone.net.xml"/>
        <route-files value="route_gen.rou.xml"/>
    </input>

    <output>
        <tripinfo-output value="tripinfo_epi301.xml"/>
    </output>

    <report>
        <no-warnings value="true"/>
    </report>

    <traci_server>
        <remote-port value="54329"/>
    </traci_server>

</configuration>
-->

<tripinfos xmlns:xsi="http://www.w3.org/2001/XMLSchema-instance" xsi:noNamespaceSchemaLocation="http://sumo.dlr.de/xsd/tripinfo_file.xsd">
    <tripinfo id="WE_1" depart="1.00" departLane="1i_0" departPos="4.10" departSpeed="0.00" departDelay="0.00" arrival="79.00" arrivalLane="4o_0" arrivalPos="492.80" arrivalSpeed="11.17" duration="78.00" routeLength="995.70" waitingTime="0.00" waitingCount="0" stopTime="0.00" timeLoss="10.83" rerouteNo="0" devices="tripinfo_WE_1" vType="car" speedFactor="1.06" vaporized=""/>
    <tripinfo id="SN_2" depart="2.00" departLane="3i_0" departPos="4.10" departSpeed="0.00" departDelay="0.00" arrival="82.00" arrivalLane="2o_0" arrivalPos="492.80" arrivalSpeed="11.15" duration="80.00" routeLength="990.53" waitingTime="0.00" waitingCount="0" stopTime="0.00" timeLoss="9.79" rerouteNo="0" devices="tripinfo_SN_2" vType="car" speedFactor="1.01" vaporized=""/>
    <tripinfo id="EW_1" depart="1.00" departLane="4i_0" departPos="4.10" departSpeed="0.00" departDelay="0.00" arrival="86.00" arrivalLane="1o_0" arrivalPos="492.80" arrivalSpeed="9.66" duration="85.00" routeLength="990.53" waitingTime="0.00" waitingCount="0" stopTime="0.00" timeLoss="9.77" rerouteNo="0" devices="tripinfo_EW_1" vType="car" speedFactor="0.94" vaporized=""/>
    <tripinfo id="EW_7" depart="7.00" departLane="4i_0" departPos="4.10" departSpeed="0.00" departDelay="0.00" arrival="95.00" arrivalLane="2o_0" arrivalPos="492.80" arrivalSpeed="11.39" duration="88.00" routeLength="995.70" waitingTime="7.00" waitingCount="1" stopTime="0.00" timeLoss="18.94" rerouteNo="0" devices="tripinfo_EW_7" vType="car" speedFactor="1.03" vaporized=""/>
    <tripinfo id="SN_6" depart="6.00" departLane="3i_0" departPos="10.10" departSpeed="0.00" departDelay="0.00" arrival="99.00" arrivalLane="2o_0" arrivalPos="492.80" arrivalSpeed="11.42" duration="93.00" routeLength="984.53" waitingTime="3.00" waitingCount="3" stopTime="0.00" timeLoss="25.60" rerouteNo="0" devices="tripinfo_SN_6" vType="truck" speedFactor="1.04" vaporized=""/>
    <tripinfo id="WE_20" depart="20.00" departLane="1i_0" departPos="4.10" departSpeed="0.00" departDelay="0.00" arrival="108.00" arrivalLane="2o_0" arrivalPos="492.80" arrivalSpeed="10.02" duration="88.00" routeLength="995.90" waitingTime="0.00" waitingCount="0" stopTime="0.00" timeLoss="12.24" rerouteNo="0" devices="tripinfo_WE_20" vType="car" speedFactor="0.94" vaporized=""/>
    <tripinfo id="EW_10" depart="10.00" departLane="4i_0" departPos="4.10" departSpeed="0.00" departDelay="0.00" arrival="110.00" arrivalLane="3o_0" arrivalPos="492.80" arrivalSpeed="8.34" duration="100.00" routeLength="995.90" waitingTime="0.00" waitingCount="0" stopTime="0.00" timeLoss="14.40" rerouteNo="0" devices="tripinfo_EW_10" vType="car" speedFactor="0.83" vaporized=""/>
    <tripinfo id="WE_30" depart="31.00" departLane="1i_0" departPos="4.10" departSpeed="0.00" departDelay="1.00" arrival="110.00" arrivalLane="2o_0" arrivalPos="492.80" arrivalSpeed="11.18" duration="79.00" routeLength="995.90" waitingTime="0.00" waitingCount="0" stopTime="0.00" timeLoss="15.15" rerouteNo="0" devices="tripinfo_WE_30" vType="car" speedFactor="1.12" vaporized=""/>
    <tripinfo id="WE_28" depart="28.00" departLane="1i_0" departPos="4.10" departSpeed="0.00" departDelay="0.00" arrival="111.00" arrivalLane="3o_0" arrivalPos="492.80" arrivalSpeed="11.28" duration="83.00" routeLength="990.53" waitingTime="0.00" waitingCount="0" stopTime="0.00" timeLoss="14.47" rerouteNo="0" devices="tripinfo_WE_28" vType="car" speedFactor="1.03" vaporized=""/>
    <tripinfo id="NS_29" depart="29.00" departLane="2i_0" departPos="4.10" departSpeed="0.00" departDelay="0.00" arrival="113.00" arrivalLane="3o_0" arrivalPos="492.80" arrivalSpeed="10.50" duration="84.00" routeLength="995.70" waitingTime="1.00" waitingCount="1" stopTime="0.00" timeLoss="16.35" rerouteNo="0" devices="tripinfo_NS_29" vType="car" speedFactor="1.05" vaporized=""/>
    <tripinfo id="SN_11" depart="11.00" departLane="3i_0" departPos="10.10" departSpeed="0.00" departDelay="0.00" arrival="115.00" arrivalLane="2o_0" arrivalPos="492.80" arrivalSpeed="11.06" duration="104.00" routeLength="984.53" waitingTime="5.00" waitingCount="4" stopTime="0.00" timeLoss="34.98" rerouteNo="0" devices="tripinfo_SN_11" vType="truck" speedFactor="1.02" vaporized=""/>
    <tripinfo id="EW_20" depart="20.00" departLane="4i_0" departPos="4.10" departSpeed="0.00" departDelay="0.00" arrival="119.00" arrivalLane="1o_0" arrivalPos="492.80" arrivalSpeed="8.98" duration="99.00" routeLength="990.53" waitingTime="3.00" waitingCount="1" stopTime="0.00" timeLoss="16.18" rerouteNo="0" devices="tripinfo_EW_20" vType="car" speedFactor="0.86" vaporized=""/>
    <tripinfo id="NS_32" depart="32.00" departLane="2i_0" departPos="4.10" departSpeed="0.00" departDelay="0.00" arrival="121.00" arrivalLane="4o_0" arrivalPos="492.80" arrivalSpeed="8.60" duration="89.00" routeLength="990.53" waitingTime="0.00" waitingCount="0" stopTime="0.00" timeLoss="8.87" rerouteNo="0" devices="tripinfo_NS_32" vType="car" speedFactor="0.88" vaporized=""/>
    <tripinfo id="EW_44" depart="44.00" departLane="4i_0" departPos="10.10" departSpeed="0.00" departDelay="0.00" arrival="125.00" arrivalLane="3o_0" arrivalPos="492.80" arrivalSpeed="11.40" duration="81.00" routeLength="989.90" waitingTime="0.00" waitingCount="0" stopTime="0.00" timeLoss="14.26" rerouteNo="0" devices="tripinfo_EW_44" vType="truck" speedFactor="1.08" vaporized=""/>
    <tripinfo id="EW_32" depart="32.00" departLane="4i_0" departPos="4.10" departSpeed="0.00" departDelay="0.00" arrival="126.00" arrivalLane="1o_0" arrivalPos="492.80" arrivalSpeed="9.83" duration="94.00" routeLength="990.53" waitingTime="8.00" waitingCount="1" stopTime="0.00" timeLoss="17.98" rerouteNo="0" devices="tripinfo_EW_32" vType="car" speedFactor="0.93" vaporized=""/>
    <tripinfo id="SN_14" depart="14.00" departLane="3i_0" departPos="4.10" departSpeed="0.00" departDelay="0.00" arrival="129.00" arrivalLane="2o_0" arrivalPos="492.80" arrivalSpeed="9.69" duration="115.00" routeLength="990.53" waitingTime="6.00" waitingCount="3" stopTime="0.00" timeLoss="35.28" rerouteNo="0" devices="tripinfo_SN_14" vType="car" speedFactor="0.89" vaporized=""/>
    <tripinfo id="WE_44" depart="44.00" departLane="1i_0" departPos="4.10" departSpeed="0.00" departDelay="0.00" arrival="131.00" arrivalLane="2o_0" arrivalPos="492.80" arrivalSpeed="9.67" duration="87.00" routeLength="995.90" waitingTime="0.00" waitingCount="0" stopTime="0.00" timeLoss="11.05" rerouteNo="0" devices="tripinfo_WE_44" vType="car" speedFactor="0.94" vaporized=""/>
    <tripinfo id="SN_24" depart="24.00" departLane="3i_0" departPos="4.10" departSpeed="0.00" departDelay="0.00" arrival="133.00" arrivalLane="2o_0" arrivalPos="492.80" arrivalSpeed="11.98" duration="109.00" routeLength="990.53" waitingTime="5.00" waitingCount="4" stopTime="0.00" timeLoss="43.81" rerouteNo="0" devices="tripinfo_SN_24" vType="car" speedFactor="1.09" vaporized=""/>
    <tripinfo id="NS_54" depart="54.00" departLane="2i_0" departPos="4.10" departSpeed="0.00" departDelay="0.00" arrival="133.00" arrivalLane="1o_0" arrivalPos="492.80" arrivalSpeed="11.02" duration="79.00" routeLength="995.90" waitingTime="0.00" waitingCount="0" stopTime="0.00" timeLoss="8.36" rerouteNo="0" devices="tripinfo_NS_54" vType="car" speedFactor="1.01" vaporized=""/>
    <tripinfo id="SN_30" depart="30.00" departLane="3i_0" departPos="4.10" departSpeed="0.00" departDelay="0.00" arrival="134.00" arrivalLane="2o_0" arrivalPos="492.80" arrivalSpeed="10.34" duration="104.00" routeLength="990.53" waitingTime="2.00" waitingCount="2" stopTime="0.00" timeLoss="33.02" rerouteNo="0" devices="tripinfo_SN_30" vType="car" speedFactor="0.99" vaporized=""/>
    <tripinfo id="WE_55" depart="55.00" departLane="1i_0" departPos="4.10" departSpeed="0.00" departDelay="0.00" arrival="136.00" arrivalLane="3o_0" arrivalPos="492.80" arrivalSpeed="10.27" duration="81.00" routeLength="990.53" waitingTime="0.00" waitingCount="0" stopTime="0.00" timeLoss="7.88" rerouteNo="0" devices="tripinfo_WE_55" vType="car" speedFactor="0.97" vaporized=""/>
    <tripinfo id="SN_32" depart="33.00" departLane="3i_0" departPos="4.10" departSpeed="0.00" departDelay="1.00" arrival="144.00" arrivalLane="1o_0" arrivalPos="492.80" arrivalSpeed="9.55" duration="111.00" routeLength="995.70" waitingTime="1.00" waitingCount="1" stopTime="0.00" timeLoss="35.44" rerouteNo="0" devices="tripinfo_SN_32" vType="car" speedFactor="0.94" vaporized=""/>
    <tripinfo id="WE_58" depart="58.00" departLane="1i_0" departPos="4.10" departSpeed="0.00" departDelay="0.00" arrival="146.00" arrivalLane="3o_0" arrivalPos="492.80" arrivalSpeed="9.58" duration="88.00" routeLength="990.53" waitingTime="0.00" waitingCount="0" stopTime="0.00" timeLoss="8.24" rerouteNo="0" devices="tripinfo_WE_58" vType="car" speedFactor="0.89" vaporized=""/>
    <tripinfo id="SN_72" depart="72.00" departLane="3i_0" departPos="4.10" departSpeed="0.00" departDelay="0.00" arrival="147.00" arrivalLane="4o_0" arrivalPos="492.80" arrivalSpeed="12.37" duration="75.00" routeLength="995.90" waitingTime="1.00" waitingCount="1" stopTime="0.00" timeLoss="12.64" rerouteNo="0" devices="tripinfo_SN_72" vType="car" speedFactor="1.13" vaporized=""/>
    <tripinfo id="WE_61" depart="61.00" departLane="1i_0" departPos="4.10" departSpeed="0.00" departDelay="0.00" arrival="151.00" arrivalLane="2o_0" arrivalPos="492.80" arrivalSpeed="8.42" duration="90.00" routeLength="995.90" waitingTime="0.00" waitingCount="0" stopTime="0.00" timeLoss="8.85" rerouteNo="0" devices="tripinfo_WE_61" vType="car" speedFactor="0.87" vaporized=""/>
    <tripinfo id="SN_45" depart="45.00" departLane="3i_0" departPos="4.10" departSpeed="0.00" departDelay="0.00" arrival="153.00" arrivalLane="2o_0" arrivalPos="492.80" arrivalSpeed="11.22" duration="108.00" routeLength="990.53" waitingTime="2.00" waitingCount="2" stopTime="0.00" timeLoss="38.32" rerouteNo="0" devices="tripinfo_SN_45" vType="car" speedFactor="1.02" vaporized=""/>
    <tripinfo id="NS_69" depart="69.00" departLane="2i_0" departPos="4.10" departSpeed="0.00" departDelay="0.00" arrival="155.00" arrivalLane="1o_0" arrivalPos="492.80" arrivalSpeed="9.06" duration="86.00" routeLength="995.90" waitingTime="0.00" waitingCount="0" stopTime="0.00" timeLoss="8.16" rerouteNo="0" devices="tripinfo_NS_69" vType="car" speedFactor="0.92" vaporized=""/>
    <tripinfo id="WE_70" depart="70.00" departLane="1i_0" departPos="10.10" departSpeed="0.00" departDelay="0.00" arrival="155.00" arrivalLane="2o_0" arrivalPos="492.80" arrivalSpeed="10.66" duration="85.00" routeLength="989.90" waitingTime="0.00" waitingCount="0" stopTime="0.00" timeLoss="12.66" rerouteNo="0" devices="tripinfo_WE_70" vType="truck" speedFactor="0.97" vaporized=""/>
    <tripinfo id="NS_60" depart="60.00" departLane="2i_0" departPos="4.10" departSpeed="0.00" departDelay="0.00" arrival="156.00" arrivalLane="3o_0" arrivalPos="492.80" arrivalSpeed="8.38" duration="96.00" routeLength="995.70" waitingTime="0.00" waitingCount="0" stopTime="0.00" timeLoss="10.23" rerouteNo="0" devices="tripinfo_NS_60" vType="car" speedFactor="0.83" vaporized=""/>
    <tripinfo id="WE_79" depart="79.00" departLane="1i_0" departPos="4.10" departSpeed="0.00" departDelay="0.00" arrival="157.00" arrivalLane="2o_0" arrivalPos="492.80" arrivalSpeed="12.79" duration="78.00" routeLength="995.90" waitingTime="0.00" waitingCount="0" stopTime="0.00" timeLoss="17.96" rerouteNo="0" devices="tripinfo_WE_79" vType="car" speedFactor="1.18" vaporized=""/>
    <tripinfo id="WE_81" depart="82.00" departLane="1i_0" departPos="4.10" departSpeed="0.00" departDelay="1.00" arrival="159.00" arrivalLane="2o_0" arrivalPos="492.80" arrivalSpeed="11.91" duration="77.00" routeLength="995.90" waitingTime="0.00" waitingCount="0" stopTime="0.00" timeLoss="16.19" rerouteNo="0" devices="tripinfo_WE_81" vType="car" speedFactor="1.17" vaporized=""/>
    <tripinfo id="EW_79" depart="79.00" departLane="4i_0" departPos="4.10" departSpeed="0.00" departDelay="0.00" arrival="161.00" arrivalLane="1o_0" arrivalPos="492.80" arrivalSpeed="11.68" duration="82.00" routeLength="990.53" waitingTime="5.00" waitingCount="1" stopTime="0.00" timeLoss="20.62" rerouteNo="0" devices="tripinfo_EW_79" vType="car" speedFactor="1.15" vaporized=""/>
    <tripinfo id="WE_84" depart="86.00" departLane="1i_0" departPos="4.10" departSpeed="0.00" departDelay="2.00" arrival="163.00" arrivalLane="3o_0" arrivalPos="492.80" arrivalSpeed="10.85" duration="77.00" routeLength="990.53" waitingTime="0.00" waitingCount="0" stopTime="0.00" timeLoss="7.44" rerouteNo="0" devices="tripinfo_WE_84" vType="car" speedFactor="1.02" vaporized=""/>
    <tripinfo id="NS_73" depart="73.00" departLane="2i_0" departPos="4.10" departSpeed="0.00" departDelay="0.00" arrival="170.00" arrivalLane="3o_0" arrivalPos="492.80" arrivalSpeed="9.49" duration="97.00" routeLength="995.70" waitingTime="9.00" waitingCount="1" stopTime="0.00" timeLoss="20.83" rerouteNo="0" devices="tripinfo_NS_73" vType="car" speedFactor="0.93" vaporized=""/>
    <tripinfo id="SN_80" depart="80.00" departLane="3i_0" departPos="4.10" departSpeed="0.00" departDelay="0.00" arrival="170.00" arrivalLane="1o_0" arrivalPos="492.80" arrivalSpeed="10.09" duration="90.00" routeLength="995.70" waitingTime="4.00" waitingCount="1" stopTime="0.00" timeLoss="19.24" rerouteNo="0" devices="tripinfo_SN_80" vType="car" speedFactor="1.01" vaporized=""/>
    <tripinfo id="NS_89" depart="89.00" departLane="2i_0" departPos="4.10" departSpeed="0.00" departDelay="0.00" arrival="172.00" arrivalLane="3o_0" arrivalPos="492.80" arrivalSpeed="12.64" duration="83.00" routeLength="995.70" waitingTime="0.00" waitingCount="0" stopTime="0.00" timeLoss="22.22" rerouteNo="0" devices="tripinfo_NS_89" vType="car" speedFactor="1.18" vaporized=""/>
    <tripinfo id="SN_81" depart="83.00" departLane="3i_0" departPos="4.10" departSpeed="0.00" departDelay="2.00" arrival="174.00" arrivalLane="2o_0" arrivalPos="492.80" arrivalSpeed="10.34" duration="91.00" routeLength="990.53" waitingTime="3.00" waitingCount="2" stopTime="0.00" timeLoss="19.77" rerouteNo="0" devices="tripinfo_SN_81" vType="car" speedFactor="0.99" vaporized=""/>
    <tripinfo id="NS_85" depart="85.00" departLane="2i_0" departPos="4.10" departSpeed="0.00" departDelay="0.00" arrival="174.00" arrivalLane="1o_0" arrivalPos="492.80" arrivalSpeed="10.52" duration="89.00" routeLength="995.90" waitingTime="2.00" waitingCount="1" stopTime="0.00" timeLoss="15.85" rerouteNo="0" devices="tripinfo_NS_85" vType="car" speedFactor="0.97" vaporized=""/>
    <tripinfo id="SN_99" depart="99.00" departLane="3i_0" departPos="4.10" departSpeed="0.00" departDelay="0.00" arrival="179.00" arrivalLane="1o_0" arrivalPos="492.80" arrivalSpeed="11.36" duration="80.00" routeLength="995.70" waitingTime="1.00" waitingCount="1" stopTime="0.00" timeLoss="15.93" rerouteNo="0" devices="tripinfo_SN_99" vType="car" speedFactor="1.10" vaporized=""/>
    <tripinfo id="NS_101" depart="101.00" departLane="2i_0" departPos="4.10" departSpeed="0.00" departDelay="0.00" arrival="180.00" arrivalLane="3o_0" arrivalPos="492.80" arrivalSpeed="10.73" duration="79.00" routeLength="995.70" waitingTime="0.00" waitingCount="0" stopTime="0.00" timeLoss="10.20" rerouteNo="0" devices="tripinfo_NS_101" vType="car" speedFactor="1.03" vaporized=""/>
    <tripinfo id="NS_104" depart="106.00" departLane="2i_0" departPos="4.10" departSpeed="0.00" departDelay="2.00" arrival="182.00" arrivalLane="1o_0" arrivalPos="492.80" arrivalSpeed="11.35" duration="76.00" routeLength="995.90" waitingTime="0.00" waitingCount="0" stopTime="0.00" timeLoss="11.32" rerouteNo="0" devices="tripinfo_NS_104" vType="car" speedFactor="1.09" vaporized=""/>
    <tripinfo id="NS_103" depart="103.00" departLane="2i_0" departPos="4.10" departSpeed="0.00" departDelay="0.00" arrival="187.00" arrivalLane="3o_0" arrivalPos="492.80" arrivalSpeed="10.62" duration="84.00" routeLength="995.70" waitingTime="0.00" waitingCount="0" stopTime="0.00" timeLoss="9.81" rerouteNo="0" devices="tripinfo_NS_103" vType="car" speedFactor="0.96" vaporized=""/>
    <tripinfo id="NS_106" depart="110.00" departLane="2i_0" departPos="4.10" departSpeed="0.00" departDelay="4.00" arrival="201.00" arrivalLane="3o_0" arrivalPos="492.80" arrivalSpeed="11.46" duration="91.00" routeLength="995.70" waitingTime="13.00" waitingCount="1" stopTime="0.00" timeLoss="25.87" rerouteNo="0" devices="tripinfo_NS_106" vType="car" speedFactor="1.09" vaporized=""/>
    <tripinfo id="NS_128" depart="129.00" departLane="2i_0" departPos="4.10" departSpeed="0.00" departDelay="1.00" arrival="203.00" arrivalLane="3o_0" arrivalPos="492.80" arrivalSpeed="12.70" duration="74.00" routeLength="995.70" waitingTime="0.00" waitingCount="0" stopTime="0.00" timeLoss="12.88" rerouteNo="0" devices="tripinfo_NS_128" vType="car" speedFactor="1.17" vaporized=""/>
    <tripinfo id="WE_107" depart="107.00" departLane="1i_0" departPos="4.10" departSpeed="0.00" departDelay="0.00" arrival="211.00" arrivalLane="4o_0" arrivalPos="492.80" arrivalSpeed="10.70" duration="104.00" routeLength="995.70" waitingTime="19.00" waitingCount="1" stopTime="0.00" timeLoss="32.31" rerouteNo="0" devices="tripinfo_WE_107" vType="car" speedFactor="1.00" vaporized=""/>
    <tripinfo id="NS_131" depart="134.00" departLane="2i_0" departPos="4.10" departSpeed="0.00" departDelay="3.00" arrival="213.00" arrivalLane="1o_0" arrivalPos="492.80" arrivalSpeed="11.04" duration="79.00" routeLength="995.90" waitingTime="0.00" waitingCount="0" stopTime="0.00" timeLoss="8.67" rerouteNo="0" devices="tripinfo_NS_131" vType="car" speedFactor="1.02" vaporized=""/>
    <tripinfo id="WE_108" depart="109.00" departLane="1i_0" departPos="4.10" departSpeed="0.00" departDelay="1.00" arrival="218.00" arrivalLane="2o_0" arrivalPos="492.80" arrivalSpeed="8.81" duration="109.00" routeLength="995.90" waitingTime="16.00" waitingCount="1" stopTime="0.00" timeLoss="30.45" rerouteNo="0" devices="tripinfo_WE_108" vType="car" speedFactor="0.90" vaporized=""/>
    <tripinfo id="WE_121" depart="121.00" departLane="1i_0" departPos="4.10" departSpeed="0.00" departDelay="0.00" arrival="223.00" arrivalLane="3o_0" arrivalPos="492.80" arrivalSpeed="9.17" duration="102.00" routeLength="990.53" waitingTime="6.00" waitingCount="1" stopTime="0.00" timeLoss="18.86" rerouteNo="0" devices="tripinfo_WE_121" vType="car" speedFactor="0.85" vaporized=""/>
    <tripinfo id="WE_122" depart="124.00" departLane="1i_0" departPos="4.10" departSpeed="0.00" departDelay="2.00" arrival="227.00" arrivalLane="4o_0" arrivalPos="492.80" arrivalSpeed="9.19" duration="103.00" routeLength="995.70" waitingTime="4.00" waitingCount="1" stopTime="0.00" timeLoss="19.64" rerouteNo="0" devices="tripinfo_WE_122" vType="car" speedFactor="0.85" vaporized=""/>
    <tripinfo id="WE_149" depart="149.00" departLane="1i_0" departPos="4.10" departSpeed="0.00" departDelay="0.00" arrival="228.00" arrivalLane="4o_0" arrivalPos="492.80" arrivalSpeed="12.53" duration="79.00" routeLength="995.70" waitingTime="0.00" waitingCount="0" stopTime="0.00" timeLoss="17.01" rerouteNo="0" devices="tripinfo_WE_149" vType="car" speedFactor="1.14" vaporized=""/>
    <tripinfo id="NS_144" depart="144.00" departLane="2i_0" departPos="4.10" departSpeed="0.00" departDelay="0.00" arrival="234.00" arrivalLane="3o_0" arrivalPos="492.80" arrivalSpeed="9.75" duration="90.00" routeLength="995.70" waitingTime="0.00" waitingCount="0" stopTime="0.00" timeLoss="11.17" rerouteNo="0" devices="tripinfo_NS_144" vType="car" speedFactor="0.90" vaporized=""/>
    <tripinfo id="NS_153" depart="155.00" departLane="2i_0" departPos="10.10" departSpeed="0.00" departDelay="2.00" arrival="236.00" arrivalLane="4o_0" arrivalPos="492.80" arrivalSpeed="11.38" duration="81.00" routeLength="984.53" waitingTime="0.00" waitingCount="0" stopTime="0.00" timeLoss="12.57" rerouteNo="0" devices="tripinfo_NS_153" vType="truck" speedFactor="1.04" vaporized=""/>
    <tripinfo id="NS_156" depart="159.00" departLane="2i_0" departPos="4.10" departSpeed="0.00" departDelay="3.00" arrival="242.00" arrivalLane="3o_0" arrivalPos="492.80" arrivalSpeed="10.63" duration="83.00" routeLength="995.70" waitingTime="0.00" waitingCount="0" stopTime="0.00" timeLoss="13.29" rerouteNo="0" devices="tripinfo_NS_156" vType="car" speedFactor="1.02" vaporized=""/>
    <tripinfo id="NS_162" depart="163.00" departLane="2i_0" departPos="10.10" departSpeed="0.00" departDelay="1.00" arrival="249.00" arrivalLane="1o_0" arrivalPos="492.80" arrivalSpeed="10.27" duration="86.00" routeLength="989.90" waitingTime="0.00" waitingCount="0" stopTime="0.00" timeLoss="11.15" rerouteNo="0" devices="tripinfo_NS_162" vType="truck" speedFactor="0.94" vaporized=""/>
    <tripinfo id="WE_173" depart="174.00" departLane="1i_0" departPos="4.10" departSpeed="0.00" departDelay="1.00" arrival="251.00" arrivalLane="3o_0" arrivalPos="492.80" arrivalSpeed="10.48" duration="77.00" routeLength="990.53" waitingTime="0.00" waitingCount="0" stopTime="0.00" timeLoss="9.08" rerouteNo="0" devices="tripinfo_WE_173" vType="car" speedFactor="1.04" vaporized=""/>
    <tripinfo id="NS_166" depart="167.00" departLane="2i_0" departPos="4.10" departSpeed="0.00" departDelay="1.00" arrival="256.00" arrivalLane="4o_0" arrivalPos="492.80" arrivalSpeed="9.51" duration="89.00" routeLength="990.53" waitingTime="0.00" waitingCount="0" stopTime="0.00" timeLoss="11.33" rerouteNo="0" devices="tripinfo_NS_166" vType="car" speedFactor="0.91" vaporized=""/>
    <tripinfo id="NS_175" depart="175.00" departLane="2i_0" departPos="4.10" departSpeed="0.00" departDelay="0.00" arrival="258.00" arrivalLane="4o_0" arrivalPos="492.80" arrivalSpeed="10.26" duration="83.00" routeLength="990.53" waitingTime="0.00" waitingCount="0" stopTime="0.00" timeLoss="13.66" rerouteNo="0" devices="tripinfo_NS_175" vType="car" speedFactor="1.02" vaporized=""/>
    <tripinfo id="WE_183" depart="183.00" departLane="1i_0" departPos="4.10" departSpeed="0.00" departDelay="0.00" arrival="261.00" arrivalLane="3o_0" arrivalPos="492.80" arrivalSpeed="11.43" duration="78.00" routeLength="990.53" waitingTime="0.00" waitingCount="0" stopTime="0.00" timeLoss="9.11" rerouteNo="0" devices="tripinfo_WE_183" vType="car" speedFactor="1.03" vaporized=""/>
    <tripinfo id="WE_196" depart="196.00" departLane="1i_0" departPos="4.10" departSpeed="0.00" departDelay="0.00" arrival="275.00" arrivalLane="3o_0" arrivalPos="492.80" arrivalSpeed="10.15" duration="79.00" routeLength="990.53" waitingTime="0.00" waitingCount="0" stopTime="0.00" timeLoss="8.12" rerouteNo="0" devices="tripinfo_WE_196" vType="car" speedFactor="1.00" vaporized=""/>
    <tripinfo id="WE_202" depart="202.00" departLane="1i_0" departPos="4.10" departSpeed="0.00" departDelay="0.00" arrival="278.00" arrivalLane="2o_0" arrivalPos="492.80" arrivalSpeed="11.38" duration="76.00" routeLength="995.90" waitingTime="0.00" waitingCount="0" stopTime="0.00" timeLoss="8.00" rerouteNo="0" devices="tripinfo_WE_202" vType="car" speedFactor="1.04" vaporized=""/>
    <tripinfo id="WE_217" depart="217.00" departLane="1i_0" departPos="4.10" departSpeed="0.00" departDelay="0.00" arrival="290.00" arrivalLane="3o_0" arrivalPos="492.80" arrivalSpeed="10.97" duration="73.00" routeLength="990.53" waitingTime="0.00" waitingCount="0" stopTime="0.00" timeLoss="8.30" rerouteNo="0" devices="tripinfo_WE_217" vType="car" speedFactor="1.09" vaporized=""/>
    <tripinfo id="NS_176" depart="178.00" departLane="2i_0" departPos="4.10" departSpeed="0.00" departDelay="2.00" arrival="301.00" arrivalLane="3o_0" arrivalPos="492.80" arrivalSpeed="10.32" duration="123.00" routeLength="995.70" waitingTime="34.00" waitingCount="1" stopTime="0.00" timeLoss="47.63" rerouteNo="0" devices="tripinfo_NS_176" vType="car" speedFactor="0.94" vaporized=""/>
    <tripinfo id="NS_178" depart="182.00" departLane="2i_0" departPos="10.10" departSpeed="0.00" departDelay="4.00" arrival="304.00" arrivalLane="3o_0" arrivalPos="492.80" arrivalSpeed="10.73" duration="122.00" routeLength="989.70" waitingTime="26.00" waitingCount="1" stopTime="0.00" timeLoss="49.25" rerouteNo="0" devices="tripinfo_NS_178" vType="truck" speedFactor="0.98" vaporized=""/>
    <tripinfo id="NS_185" depart="186.00" departLane="2i_0" departPos="4.10" departSpeed="0.00" departDelay="1.00" arrival="306.00" arrivalLane="3o_0" arrivalPos="492.80" arrivalSpeed="10.29" duration="120.00" routeLength="995.70" waitingTime="25.00" waitingCount="1" stopTime="0.00" timeLoss="47.75" rerouteNo="0" devices="tripinfo_NS_185" vType="car" speedFactor="0.98" vaporized=""/>
    <tripinfo id="NS_189" depart="189.00" departLane="2i_0" departPos="4.10" departSpeed="0.00" departDelay="0.00" arrival="306.00" arrivalLane="1o_0" arrivalPos="492.80" arrivalSpeed="10.64" duration="117.00" routeLength="995.90" waitingTime="24.00" waitingCount="1" stopTime="0.00" timeLoss="46.07" rerouteNo="0" devices="tripinfo_NS_189" vType="car" speedFactor="1.01" vaporized=""/>
    <tripinfo id="NS_195" depart="195.00" departLane="2i_0" departPos="4.10" departSpeed="0.00" departDelay="0.00" arrival="307.00" arrivalLane="1o_0" arrivalPos="492.80" arrivalSpeed="11.77" duration="112.00" routeLength="995.90" waitingTime="24.00" waitingCount="1" stopTime="0.00" timeLoss="46.85" rerouteNo="0" devices="tripinfo_NS_195" vType="car" speedFactor="1.09" vaporized=""/>
    <tripinfo id="NS_198" depart="198.00" departLane="2i_0" departPos="4.10" departSpeed="0.00" departDelay="0.00" arrival="312.00" arrivalLane="1o_0" arrivalPos="492.80" arrivalSpeed="9.49" duration="114.00" routeLength="995.90" waitingTime="22.00" waitingCount="1" stopTime="0.00" timeLoss="40.81" rerouteNo="0" devices="tripinfo_NS_198" vType="car" speedFactor="0.97" vaporized=""/>
    <tripinfo id="NS_199" depart="201.00" departLane="2i_0" departPos="4.10" departSpeed="0.00" departDelay="2.00" arrival="313.00" arrivalLane="4o_0" arrivalPos="492.80" arrivalSpeed="10.75" duration="112.00" routeLength="990.53" waitingTime="20.00" waitingCount="1" stopTime="0.00" timeLoss="39.39" rerouteNo="0" devices="tripinfo_NS_199" vType="car" speedFactor="0.98" vaporized=""/>
    <tripinfo id="NS_202" depart="204.00" departLane="2i_0" departPos="4.10" departSpeed="0.00" departDelay="2.00" arrival="314.00" arrivalLane="1o_0" arrivalPos="492.80" arrivalSpeed="10.71" duration="110.00" routeLength="995.90" waitingTime="19.00" waitingCount="1" stopTime="0.00" timeLoss="39.42" rerouteNo="0" devices="tripinfo_NS_202" vType="car" speedFactor="1.01" vaporized=""/>
    <tripinfo id="NS_207" depart="207.00" departLane="2i_0" departPos="4.10" departSpeed="0.00" departDelay="0.00" arrival="315.00" arrivalLane="3o_0" arrivalPos="492.80" arrivalSpeed="10.51" duration="108.00" routeLength="995.70" waitingTime="18.00" waitingCount="1" stopTime="0.00" timeLoss="38.61" rerouteNo="0" devices="tripinfo_NS_207" vType="car" speedFactor="1.02" vaporized=""/>
    <tripinfo id="NS_218" depart="221.00" departLane="2i_0" departPos="4.10" departSpeed="0.00" departDelay="3.00" arrival="320.00" arrivalLane="4o_0" arrivalPos="492.80" arrivalSpeed="10.87" duration="99.00" routeLength="990.53" waitingTime="8.00" waitingCount="1" stopTime="0.00" timeLoss="29.28" rerouteNo="0" devices="tripinfo_NS_218" vType="car" speedFactor="1.01" vaporized=""/>
    <tripinfo id="NS_232" depart="232.00" departLane="2i_0" departPos="4.10" departSpeed="0.00" departDelay="0.00" arrival="321.00" arrivalLane="3o_0" arrivalPos="492.80" arrivalSpeed="11.82" duration="89.00" routeLength="995.70" waitingTime="0.00" waitingCount="0" stopTime="0.00" timeLoss="22.28" rerouteNo="0" devices="tripinfo_NS_232" vType="car" speedFactor="1.06" vaporized=""/>
    <tripinfo id="NS_214" depart="214.00" departLane="2i_0" departPos="4.10" departSpeed="0.00" departDelay="0.00" arrival="328.00" arrivalLane="1o_0" arrivalPos="492.80" arrivalSpeed="8.76" duration="114.00" routeLength="995.90" waitingTime="8.00" waitingCount="1" stopTime="0.00" timeLoss="28.66" rerouteNo="0" devices="tripinfo_NS_214" vType="car" speedFactor="0.83" vaporized=""/>
    <tripinfo id="NS_238" depart="240.00" departLane="2i_0" departPos="4.10" departSpeed="0.00" departDelay="2.00" arrival="329.00" arrivalLane="4o_0" arrivalPos="492.80" arrivalSpeed="10.07" duration="89.00" routeLength="990.53" waitingTime="0.00" waitingCount="0" stopTime="0.00" timeLoss="18.78" rerouteNo="0" devices="tripinfo_NS_238" vType="car" speedFactor="1.01" vaporized=""/>
    <tripinfo id="NS_216" depart="218.00" departLane="2i_0" departPos="4.10" departSpeed="0.00" departDelay="2.00" arrival="330.00" arrivalLane="1o_0" arrivalPos="492.80" arrivalSpeed="9.71" duration="112.00" routeLength="995.90" waitingTime="8.00" waitingCount="1" stopTime="0.00" timeLoss="34.60" rerouteNo="0" devices="tripinfo_NS_216" vType="car" speedFactor="0.92" vaporized=""/>
    <tripinfo id="NS_234" depart="234.00" departLane="2i_0" departPos="4.10" departSpeed="0.00" departDelay="0.00" arrival="331.00" arrivalLane="1o_0" arrivalPos="492.80" arrivalSpeed="10.67" duration="97.00" routeLength="995.90" waitingTime="0.00" waitingCount="0" stopTime="0.00" timeLoss="24.00" rerouteNo="0" devices="tripinfo_NS_234" vType="car" speedFactor="0.97" vaporized=""/>