<?xml version="1.0" encoding="UTF-8"?>

<!-- generated on 2024-05-05 21:45:00 by Eclipse SUMO sumo Version 1.19.0
<configuration xmlns:xsi="http://www.w3.org/2001/XMLSchema-instance" xsi:noNamespaceSchemaLocation="http://sumo.dlr.de/xsd/sumoConfiguration.xsd">

    <input>
        <net-file value="twoone.net.xml"/>
        <route-files value="route_gen.rou.xml"/>
    </input>

    <output>
        <tripinfo-output value="tripinfo_epi100.xml"/>
    </output>

    <report>
        <no-warnings value="true"/>
    </report>

    <traci_server>
        <remote-port value="34201"/>
    </traci_server>

</configuration>
-->

<tripinfos xmlns:xsi="http://www.w3.org/2001/XMLSchema-instance" xsi:noNamespaceSchemaLocation="http://sumo.dlr.de/xsd/tripinfo_file.xsd">
    <tripinfo id="NS_0" depart="0.00" departLane="2i_0" departPos="4.10" departSpeed="0.00" departDelay="0.00" arrival="79.00" arrivalLane="3o_0" arrivalPos="492.80" arrivalSpeed="11.47" duration="79.00" routeLength="995.70" waitingTime="0.00" waitingCount="0" stopTime="0.00" timeLoss="12.31" rerouteNo="0" devices="tripinfo_NS_0" vType="car" speedFactor="1.06" vaporized=""/>
    <tripinfo id="WE_1" depart="1.00" departLane="1i_0" departPos="4.10" departSpeed="0.00" departDelay="0.00" arrival="79.00" arrivalLane="2o_0" arrivalPos="492.80" arrivalSpeed="10.41" duration="78.00" routeLength="995.90" waitingTime="0.00" waitingCount="0" stopTime="0.00" timeLoss="7.10" rerouteNo="0" devices="tripinfo_WE_1" vType="car" speedFactor="1.01" vaporized=""/>
    <tripinfo id="WE_4" depart="4.00" departLane="1i_0" departPos="4.10" departSpeed="0.00" departDelay="0.00" arrival="80.00" arrivalLane="4o_0" arrivalPos="492.80" arrivalSpeed="11.35" duration="76.00" routeLength="995.70" waitingTime="0.00" waitingCount="0" stopTime="0.00" timeLoss="10.03" rerouteNo="0" devices="tripinfo_WE_4" vType="car" speedFactor="1.08" vaporized=""/>
    <tripinfo id="SN_0" depart="0.00" departLane="3i_0" departPos="4.10" departSpeed="0.00" departDelay="0.00" arrival="89.00" arrivalLane="4o_0" arrivalPos="492.80" arrivalSpeed="9.53" duration="89.00" routeLength="995.90" waitingTime="1.00" waitingCount="1" stopTime="0.00" timeLoss="13.61" rerouteNo="0" devices="tripinfo_SN_0" vType="car" speedFactor="0.94" vaporized=""/>
    <tripinfo id="SN_7" depart="7.00" departLane="3i_0" departPos="4.10" departSpeed="0.00" departDelay="0.00" arrival="90.00" arrivalLane="2o_0" arrivalPos="492.80" arrivalSpeed="10.94" duration="83.00" routeLength="990.53" waitingTime="1.00" waitingCount="1" stopTime="0.00" timeLoss="14.33" rerouteNo="0" devices="tripinfo_SN_7" vType="car" speedFactor="1.03" vaporized=""/>
    <tripinfo id="NS_10" depart="10.00" departLane="2i_0" departPos="4.10" departSpeed="0.00" departDelay="0.00" arrival="92.00" arrivalLane="1o_0" arrivalPos="492.80" arrivalSpeed="10.99" duration="82.00" routeLength="995.90" waitingTime="1.00" waitingCount="1" stopTime="0.00" timeLoss="13.74" rerouteNo="0" devices="tripinfo_NS_10" vType="car" speedFactor="1.05" vaporized=""/>
    <tripinfo id="NS_8" depart="8.00" departLane="2i_0" departPos="4.10" departSpeed="0.00" departDelay="0.00" arrival="102.00" arrivalLane="4o_0" arrivalPos="492.80" arrivalSpeed="8.86" duration="94.00" routeLength="990.53" waitingTime="0.00" waitingCount="0" stopTime="0.00" timeLoss="9.62" rerouteNo="0" devices="tripinfo_NS_8" vType="car" speedFactor="0.83" vaporized=""/>
    <tripinfo id="NS_27" depart="27.00" departLane="2i_0" departPos="4.10" departSpeed="0.00" departDelay="0.00" arrival="102.00" arrivalLane="3o_0" arrivalPos="492.80" arrivalSpeed="11.71" duration="75.00" routeLength="995.70" waitingTime="0.00" waitingCount="0" stopTime="0.00" timeLoss="9.44" rerouteNo="0" devices="tripinfo_NS_27" vType="car" speedFactor="1.09" vaporized=""/>
    <tripinfo id="NS_14" depart="14.00" departLane="2i_0" departPos="4.10" departSpeed="0.00" departDelay="0.00" arrival="104.00" arrivalLane="1o_0" arrivalPos="492.80" arrivalSpeed="8.57" duration="90.00" routeLength="995.90" waitingTime="0.00" waitingCount="0" stopTime="0.00" timeLoss="9.70" rerouteNo="0" devices="tripinfo_NS_14" vType="car" speedFactor="0.89" vaporized=""/>
    <tripinfo id="SN_15" depart="15.00" departLane="3i_0" departPos="4.10" departSpeed="0.00" departDelay="0.00" arrival="106.00" arrivalLane="4o_0" arrivalPos="492.80" arrivalSpeed="9.16" duration="91.00" routeLength="995.90" waitingTime="2.00" waitingCount="1" stopTime="0.00" timeLoss="15.28" rerouteNo="0" devices="tripinfo_SN_15" vType="car" speedFactor="0.94" vaporized=""/>
    <tripinfo id="WE_32" depart="32.00" departLane="1i_0" departPos="4.10" departSpeed="0.00" departDelay="0.00" arrival="112.00" arrivalLane="2o_0" arrivalPos="492.80" arrivalSpeed="10.45" duration="80.00" routeLength="995.90" waitingTime="1.00" waitingCount="1" stopTime="0.00" timeLoss="11.07" rerouteNo="0" devices="tripinfo_WE_32" vType="car" speedFactor="1.03" vaporized=""/>
    <tripinfo id="SN_16" depart="18.00" departLane="3i_0" departPos="4.10" departSpeed="0.00" departDelay="2.00" arrival="117.00" arrivalLane="1o_0" arrivalPos="492.80" arrivalSpeed="8.68" duration="99.00" routeLength="995.70" waitingTime="0.00" waitingCount="0" stopTime="0.00" timeLoss="16.00" rerouteNo="0" devices="tripinfo_SN_16" vType="car" speedFactor="0.86" vaporized=""/>
    <tripinfo id="SN_35" depart="35.00" departLane="3i_0" departPos="4.10" departSpeed="0.00" departDelay="0.00" arrival="119.00" arrivalLane="1o_0" arrivalPos="492.80" arrivalSpeed="11.49" duration="84.00" routeLength="995.70" waitingTime="6.00" waitingCount="1" stopTime="0.00" timeLoss="21.06" rerouteNo="0" devices="tripinfo_SN_35" vType="car" speedFactor="1.12" vaporized=""/>
    <tripinfo id="EW_33" depart="33.00" departLane="4i_0" departPos="4.10" departSpeed="0.00" departDelay="0.00" arrival="121.00" arrivalLane="2o_0" arrivalPos="492.80" arrivalSpeed="10.51" duration="88.00" routeLength="995.70" waitingTime="7.00" waitingCount="1" stopTime="0.00" timeLoss="20.27" rerouteNo="0" devices="tripinfo_EW_33" vType="car" speedFactor="1.05" vaporized=""/>
    <tripinfo id="WE_53" depart="53.00" departLane="1i_0" departPos="4.10" departSpeed="0.00" departDelay="0.00" arrival="136.00" arrivalLane="3o_0" arrivalPos="492.80" arrivalSpeed="9.88" duration="83.00" routeLength="990.53" waitingTime="0.00" waitingCount="0" stopTime="0.00" timeLoss="7.54" rerouteNo="0" devices="tripinfo_WE_53" vType="car" speedFactor="0.94" vaporized=""/>
    <tripinfo id="WE_61" depart="61.00" departLane="1i_0" departPos="4.10" departSpeed="0.00" departDelay="0.00" arrival="140.00" arrivalLane="4o_0" arrivalPos="492.80" arrivalSpeed="10.74" duration="79.00" routeLength="995.70" waitingTime="0.00" waitingCount="0" stopTime="0.00" timeLoss="9.03" rerouteNo="0" devices="tripinfo_WE_61" vType="car" speedFactor="1.01" vaporized=""/>
    <tripinfo id="NS_66" depart="66.00" departLane="2i_0" departPos="4.10" departSpeed="0.00" departDelay="0.00" arrival="160.00" arrivalLane="4o_0" arrivalPos="492.80" arrivalSpeed="7.99" duration="94.00" routeLength="990.53" waitingTime="0.00" waitingCount="0" stopTime="0.00" timeLoss="8.82" rerouteNo="0" devices="tripinfo_NS_66" vType="car" speedFactor="0.83" vaporized=""/>
    <tripinfo id="WE_96" depart="96.00" departLane="1i_0" departPos="4.10" departSpeed="0.00" departDelay="0.00" arrival="165.00" arrivalLane="2o_0" arrivalPos="492.80" arrivalSpeed="12.37" duration="69.00" routeLength="995.90" waitingTime="0.00" waitingCount="0" stopTime="0.00" timeLoss="8.15" rerouteNo="0" devices="tripinfo_WE_96" vType="car" speedFactor="1.18" vaporized=""/>
    <tripinfo id="WE_83" depart="83.00" departLane="1i_0" departPos="4.10" departSpeed="0.00" departDelay="0.00" arrival="168.00" arrivalLane="3o_0" arrivalPos="492.80" arrivalSpeed="10.25" duration="85.00" routeLength="990.53" waitingTime="0.00" waitingCount="0" stopTime="0.00" timeLoss="8.83" rerouteNo="0" devices="tripinfo_WE_83" vType="car" speedFactor="0.93" vaporized=""/>
    <tripinfo id="NS_93" depart="93.00" departLane="2i_0" departPos="4.10" departSpeed="0.00" departDelay="0.00" arrival="172.00" arrivalLane="1o_0" arrivalPos="492.80" arrivalSpeed="10.60" duration="79.00" routeLength="995.90" waitingTime="0.00" waitingCount="0" stopTime="0.00" timeLoss="7.37" rerouteNo="0" devices="tripinfo_NS_93" vType="car" speedFactor="0.99" vaporized=""/>
    <tripinfo id="NS_97" depart="98.00" departLane="2i_0" departPos="4.10" departSpeed="0.00" departDelay="1.00" arrival="175.00" arrivalLane="3o_0" arrivalPos="492.80" arrivalSpeed="11.42" duration="77.00" routeLength="995.70" waitingTime="0.00" waitingCount="0" stopTime="0.00" timeLoss="12.30" rerouteNo="0" devices="tripinfo_NS_97" vType="car" speedFactor="1.10" vaporized=""/>
    <tripinfo id="NS_95" depart="96.00" departLane="2i_0" departPos="4.10" departSpeed="0.00" departDelay="1.00" arrival="176.00" arrivalLane="4o_0" arrivalPos="492.80" arrivalSpeed="9.79" duration="80.00" routeLength="990.53" waitingTime="0.00" waitingCount="0" stopTime="0.00" timeLoss="7.74" rerouteNo="0" devices="tripinfo_NS_95" vType="car" speedFactor="0.97" vaporized=""/>
    <tripinfo id="NS_99" depart="102.00" departLane="2i_0" departPos="10.10" departSpeed="0.00" departDelay="3.00" arrival="187.00" arrivalLane="1o_0" arrivalPos="492.80" arrivalSpeed="10.34" duration="85.00" routeLength="989.90" waitingTime="0.00" waitingCount="0" stopTime="0.00" timeLoss="10.97" rerouteNo="0" devices="tripinfo_NS_99" vType="truck" speedFactor="0.95" vaporized=""/>
    <tripinfo id="NS_120" depart="121.00" departLane="2i_0" departPos="4.10" departSpeed="0.00" departDelay="1.00" arrival="197.00" arrivalLane="4o_0" arrivalPos="492.80" arrivalSpeed="11.46" duration="76.00" routeLength="990.53" waitingTime="0.00" waitingCount="0" stopTime="0.00" timeLoss="8.34" rerouteNo="0" devices="tripinfo_NS_120" vType="car" speedFactor="1.04" vaporized=""/>
    <tripinfo id="NS_124" depart="124.00" departLane="2i_0" departPos="4.10" departSpeed="0.00" departDelay="0.00" arrival="199.00" arrivalLane="4o_0" arrivalPos="492.80" arrivalSpeed="10.81" duration="75.00" routeLength="990.53" waitingTime="0.00" waitingCount="0" stopTime="0.00" timeLoss="10.09" rerouteNo="0" devices="tripinfo_NS_124" vType="car" speedFactor="1.09" vaporized=""/>
    <tripinfo id="NS_129" depart="129.00" departLane="2i_0" departPos="4.10" departSpeed="0.00" departDelay="0.00" arrival="219.00" arrivalLane="4o_0" arrivalPos="492.80" arrivalSpeed="9.67" duration="90.00" routeLength="990.53" waitingTime="0.00" waitingCount="0" stopTime="0.00" timeLoss="8.98" rerouteNo="0" devices="tripinfo_NS_129" vType="car" speedFactor="0.88" vaporized=""/>
    <tripinfo id="NS_133" depart="133.00" departLane="2i_0" departPos="4.10" departSpeed="0.00" departDelay="0.00" arrival="220.00" arrivalLane="4o_0" arrivalPos="492.80" arrivalSpeed="10.94" duration="87.00" routeLength="990.53" waitingTime="0.00" waitingCount="0" stopTime="0.00" timeLoss="17.76" rerouteNo="0" devices="tripinfo_NS_133" vType="car" speedFactor="1.02" vaporized=""/>
    <tripinfo id="WE_126" depart="126.00" departLane="1i_0" departPos="4.10" departSpeed="0.00" departDelay="0.00" arrival="223.00" arrivalLane="4o_0" arrivalPos="492.80" arrivalSpeed="8.71" duration="97.00" routeLength="995.70" waitingTime="4.00" waitingCount="1" stopTime="0.00" timeLoss="17.88" rerouteNo="0" devices="tripinfo_WE_126" vType="car" speedFactor="0.90" vaporized=""/>
    <tripinfo id="WE_144" depart="144.00" departLane="1i_0" departPos="4.10" departSpeed="0.00" departDelay="0.00" arrival="224.00" arrivalLane="4o_0" arrivalPos="492.80" arrivalSpeed="11.01" duration="80.00" routeLength="995.70" waitingTime="0.00" waitingCount="0" stopTime="0.00" timeLoss="18.07" rerouteNo="0" devices="tripinfo_WE_144" vType="car" speedFactor="1.14" vaporized=""/>
    <tripinfo id="WE_154" depart="154.00" departLane="1i_0" departPos="4.10" departSpeed="0.00" departDelay="0.00" arrival="228.00" arrivalLane="2o_0" arrivalPos="492.80" arrivalSpeed="11.69" duration="74.00" routeLength="995.90" waitingTime="0.00" waitingCount="0" stopTime="0.00" timeLoss="10.15" rerouteNo="0" devices="tripinfo_WE_154" vType="car" speedFactor="1.12" vaporized=""/>
    <tripinfo id="WE_151" depart="151.00" departLane="1i_0" departPos="4.10" departSpeed="0.00" departDelay="0.00" arrival="232.00" arrivalLane="3o_0" arrivalPos="492.80" arrivalSpeed="9.82" duration="81.00" routeLength="990.53" waitingTime="0.00" waitingCount="0" stopTime="0.00" timeLoss="8.43" rerouteNo="0" devices="tripinfo_WE_151" vType="car" speedFactor="0.97" vaporized=""/>
    <tripinfo id="NS_152" depart="152.00" departLane="2i_0" departPos="4.10" departSpeed="0.00" departDelay="0.00" arrival="234.00" arrivalLane="3o_0" arrivalPos="492.80" arrivalSpeed="11.04" duration="82.00" routeLength="995.70" waitingTime="2.00" waitingCount="1" stopTime="0.00" timeLoss="16.33" rerouteNo="0" devices="tripinfo_NS_152" vType="car" speedFactor="1.08" vaporized=""/>
    <tripinfo id="NS_156" depart="156.00" departLane="2i_0" departPos="4.10" departSpeed="0.00" departDelay="0.00" arrival="238.00" arrivalLane="3o_0" arrivalPos="492.80" arrivalSpeed="10.59" duration="82.00" routeLength="995.70" waitingTime="0.00" waitingCount="0" stopTime="0.00" timeLoss="11.82" rerouteNo="0" devices="tripinfo_NS_156" vType="car" speedFactor="1.02" vaporized=""/>
    <tripinfo id="NS_164" depart="165.00" departLane="2i_0" departPos="4.10" departSpeed="0.00" departDelay="1.00" arrival="251.00" arrivalLane="3o_0" arrivalPos="492.80" arrivalSpeed="9.37" duration="86.00" routeLength="995.70" waitingTime="0.00" waitingCount="0" stopTime="0.00" timeLoss="9.83" rerouteNo="0" devices="tripinfo_NS_164" vType="car" speedFactor="0.94" vaporized=""/>
    <tripinfo id="WE_166" depart="166.00" departLane="1i_0" departPos="4.10" departSpeed="0.00" departDelay="0.00" arrival="253.00" arrivalLane="4o_0" arrivalPos="492.80" arrivalSpeed="10.01" duration="87.00" routeLength="995.70" waitingTime="0.00" waitingCount="0" stopTime="0.00" timeLoss="9.15" rerouteNo="0" devices="tripinfo_WE_166" vType="car" speedFactor="0.91" vaporized=""/>
    <tripinfo id="NS_173" depart="173.00" departLane="2i_0" departPos="4.10" departSpeed="0.00" departDelay="0.00" arrival="255.00" arrivalLane="4o_0" arrivalPos="492.80" arrivalSpeed="11.12" duration="82.00" routeLength="990.53" waitingTime="0.00" waitingCount="0" stopTime="0.00" timeLoss="12.87" rerouteNo="0" devices="tripinfo_NS_173" vType="car" speedFactor="1.02" vaporized=""/>
    <tripinfo id="WE_172" depart="172.00" departLane="1i_0" departPos="4.10" departSpeed="0.00" departDelay="0.00" arrival="257.00" arrivalLane="4o_0" arrivalPos="492.80" arrivalSpeed="11.01" duration="85.00" routeLength="995.70" waitingTime="0.00" waitingCount="0" stopTime="0.00" timeLoss="16.79" rerouteNo="0" devices="tripinfo_WE_172" vType="car" speedFactor="1.04" vaporized=""/>
    <tripinfo id="WE_186" depart="187.00" departLane="1i_0" departPos="4.10" departSpeed="0.00" departDelay="1.00" arrival="262.00" arrivalLane="2o_0" arrivalPos="492.80" arrivalSpeed="10.73" duration="75.00" routeLength="995.90" waitingTime="0.00" waitingCount="0" stopTime="0.00" timeLoss="7.75" rerouteNo="0" devices="tripinfo_WE_186" vType="car" speedFactor="1.06" vaporized=""/>
    <tripinfo id="WE_192" depart="192.00" departLane="1i_0" departPos="4.10" departSpeed="0.00" departDelay="0.00" arrival="274.00" arrivalLane="3o_0" arrivalPos="492.80" arrivalSpeed="10.25" duration="82.00" routeLength="990.53" waitingTime="0.00" waitingCount="0" stopTime="0.00" timeLoss="8.10" rerouteNo="0" devices="tripinfo_WE_192" vType="car" speedFactor="0.96" vaporized=""/>
    <tripinfo id="WE_196" depart="196.00" departLane="1i_0" departPos="4.10" departSpeed="0.00" departDelay="0.00" arrival="276.00" arrivalLane="2o_0" arrivalPos="492.80" arrivalSpeed="10.54" duration="80.00" routeLength="995.90" waitingTime="0.00" waitingCount="0" stopTime="0.00" timeLoss="7.90" rerouteNo="0" devices="tripinfo_WE_196" vType="car" speedFactor="0.98" vaporized=""/>
    <tripinfo id="WE_207" depart="207.00" departLane="1i_0" departPos="4.10" departSpeed="0.00" departDelay="0.00" arrival="280.00" arrivalLane="3o_0" arrivalPos="492.80" arrivalSpeed="12.02" duration="73.00" routeLength="990.53" waitingTime="0.00" waitingCount="0" stopTime="0.00" timeLoss="7.60" rerouteNo="0" devices="tripinfo_WE_207" vType="car" speedFactor="1.09" vaporized=""/>
    <tripinfo id="WE_197" depart="199.00" departLane="1i_0" departPos="4.10" departSpeed="0.00" departDelay="2.00" arrival="282.00" arrivalLane="4o_0" arrivalPos="492.80" arrivalSpeed="10.62" duration="83.00" routeLength="995.70" waitingTime="0.00" waitingCount="0" stopTime="0.00" timeLoss="10.98" rerouteNo="0" devices="tripinfo_WE_197" vType="car" speedFactor="0.98" vaporized=""/>
    <tripinfo id="NS_207" depart="207.00" departLane="2i_0" departPos="4.10" departSpeed="0.00" departDelay="0.00" arrival="287.00" arrivalLane="3o_0" arrivalPos="492.80" arrivalSpeed="11.24" duration="80.00" routeLength="995.70" waitingTime="0.00" waitingCount="0" stopTime="0.00" timeLoss="10.98" rerouteNo="0" devices="tripinfo_NS_207" vType="car" speedFactor="1.03" vaporized=""/>
    <tripinfo id="NS_210" depart="210.00" departLane="2i_0" departPos="4.10" departSpeed="0.00" departDelay="0.00" arrival="291.00" arrivalLane="3o_0" arrivalPos="492.80" arrivalSpeed="10.75" duration="81.00" routeLength="995.70" waitingTime="0.00" waitingCount="0" stopTime="0.00" timeLoss="10.12" rerouteNo="0" devices="tripinfo_NS_210" vType="car" speedFactor="1.00" vaporized=""/>
    <tripinfo id="NS_213" depart="213.00" departLane="2i_0" departPos="4.10" departSpeed="0.00" departDelay="0.00" arrival="293.00" arrivalLane="3o_0" arrivalPos="492.80" arrivalSpeed="10.06" duration="80.00" routeLength="995.70" waitingTime="0.00" waitingCount="0" stopTime="0.00" timeLoss="10.55" rerouteNo="0" devices="tripinfo_NS_213" vType="car" speedFactor="1.02" vaporized=""/>
    <tripinfo id="NS_221" depart="221.00" departLane="2i_0" departPos="4.10" departSpeed="0.00" departDelay="0.00" arrival="299.00" arrivalLane="4o_0" arrivalPos="492.80" arrivalSpeed="10.53" duration="78.00" routeLength="990.53" waitingTime="0.00" waitingCount="0" stopTime="0.00" timeLoss="7.82" rerouteNo="0" devices="tripinfo_NS_221" vType="car" speedFactor="1.00" vaporized=""/>
    <tripinfo id="WE_227" depart="227.00" departLane="1i_0" departPos="4.10" departSpeed="0.00" departDelay="0.00" arrival="303.00" arrivalLane="2o_0" arrivalPos="492.80" arrivalSpeed="10.74" duration="76.00" routeLength="995.90" waitingTime="0.00" waitingCount="0" stopTime="0.00" timeLoss="8.27" rerouteNo="0" devices="tripinfo_WE_227" vType="car" speedFactor="1.04" vaporized=""/>
    <tripinfo id="WE_241" depart="241.00" departLane="1i_0" departPos="4.10" departSpeed="0.00" departDelay="0.00" arrival="315.00" arrivalLane="2o_0" arrivalPos="492.80" arrivalSpeed="11.01" duration="74.00" routeLength="995.90" waitingTime="0.00" waitingCount="0" stopTime="0.00" timeLoss="8.88" rerouteNo="0" devices="tripinfo_WE_241" vType="car" speedFactor="1.09" vaporized=""/>
    <tripinfo id="NS_241" depart="241.00" departLane="2i_0" departPos="4.10" departSpeed="0.00" departDelay="0.00" arrival="316.00" arrivalLane="4o_0" arrivalPos="492.80" arrivalSpeed="10.83" duration="75.00" routeLength="990.53" waitingTime="0.00" waitingCount="0" stopTime="0.00" timeLoss="8.17" rerouteNo="0" devices="tripinfo_NS_241" vType="car" speedFactor="1.06" vaporized=""/>
    <tripinfo id="NS_233" depart="233.00" departLane="2i_0" departPos="4.10" departSpeed="0.00" departDelay="0.00" arrival="322.00" arrivalLane="3o_0" arrivalPos="492.80" arrivalSpeed="8.88" duration="89.00" routeLength="995.70" waitingTime="0.00" waitingCount="0" stopTime="0.00" timeLoss="9.44" rerouteNo="0" devices="tripinfo_NS_233" vType="car" speedFactor="0.89" vaporized=""/>
    <tripinfo id="WE_243" depart="244.00" departLane="1i_0" departPos="4.10" departSpeed="0.00" departDelay="1.00" arrival="323.00" arrivalLane="2o_0" arrivalPos="492.80" arrivalSpeed="10.94" duration="79.00" routeLength="995.90" waitingTime="0.00" waitingCount="0" stopTime="0.00" timeLoss="8.77" rerouteNo="0" devices="tripinfo_WE_243" vType="car" speedFactor="1.01" vaporized=""/>
    <tripinfo id="NS_244" depart="247.00" departLane="2i_0" departPos="4.10" departSpeed="0.00" departDelay="3.00" arrival="324.00" arrivalLane="3o_0" arrivalPos="492.80" arrivalSpeed="11.95" duration="77.00" routeLength="995.70" waitingTime="0.00" waitingCount="0" stopTime="0.00" timeLoss="13.45" rerouteNo="0" devices="tripinfo_NS_244" vType="car" speedFactor="1.12" vaporized=""/>
    <tripinfo id="NS_245" depart="249.00" departLane="2i_0" departPos="4.10" departSpeed="0.00" departDelay="4.00" arrival="325.00" arrivalLane="1o_0" arrivalPos="492.80" arrivalSpeed="11.01" duration="76.00" routeLength="995.90" waitingTime="0.00" waitingCount="0" stopTime="0.00" timeLoss="11.18" rerouteNo="0" devices="tripinfo_NS_245" vType="car" speedFactor="1.10" vaporized=""/>
    <tripinfo id="NS_243" depart="244.00" departLane="2i_0" departPos="4.10" departSpeed="0.00" departDelay="1.00" arrival="331.00" arrivalLane="4o_0" arrivalPos="492.80" arrivalSpeed="10.00" duration="87.00" routeLength="990.53" waitingTime="0.00" waitingCount="0" stopTime="0.00" timeLoss="9.18" rerouteNo="0" devices="tripinfo_NS_243" vType="car" speedFactor="0.91" vaporized=""/>
    <tripinfo id="NS_257" depart="257.00" departLane="2i_0" departPos="4.10" departSpeed="0.00" departDelay="0.00" arrival="338.00" arrivalLane="1o_0" arrivalPos="492.80" arrivalSpeed="9.67" duration="81.00" routeLength="995.90" waitingTime="0.00" waitingCount="0" stopTime="0.00" timeLoss="7.94" rerouteNo="0" devices="tripinfo_NS_257" vType="car" speedFactor="0.97" vaporized=""/>
    <tripinfo id="NS_259" depart="260.00" departLane="2i_0" departPos="4.10" departSpeed="0.00" departDelay="1.00" arrival="342.00" arrivalLane="1o_0" arrivalPos="492.80" arrivalSpeed="9.78" duration="82.00" routeLength="995.90" waitingTime="0.00" waitingCount="0" stopTime="0.00" timeLoss="7.71" rerouteNo="0" devices="tripinfo_NS_259" vType="car" speedFactor="0.95" vaporized=""/>
    <tripinfo id="NS_264" depart="264.00" departLane="2i_0" departPos="4.10" departSpeed="0.00" departDelay="0.00" arrival="344.00" arrivalLane="1o_0" arrivalPos="492.80" arrivalSpeed="11.14" duration="80.00" routeLength="995.90" waitingTime="0.00" waitingCount="0" stopTime="0.00" timeLoss="11.06" rerouteNo="0" devices="tripinfo_NS_264" vType="car" speedFactor="1.03" vaporized=""/>
    <tripinfo id="NS_277" depart="277.00" departLane="2i_0" departPos="4.10" departSpeed="0.00" departDelay="0.00" arrival="346.00" arrivalLane="1o_0" arrivalPos="492.80" arrivalSpeed="12.42" duration="69.00" routeLength="995.90" waitingTime="0.00" waitingCount="0" stopTime="0.00" timeLoss="8.20" rerouteNo="0" devices="tripinfo_NS_277" vType="car" speedFactor="1.18" vaporized=""/>
    <tripinfo id="WE_269" depart="269.00" departLane="1i_0" departPos="4.10" departSpeed="0.00" departDelay="0.00" arrival="359.00" arrivalLane="4o_0" arrivalPos="492.80" arrivalSpeed="9.56" duration="90.00" routeLength="995.70" waitingTime="2.00" waitingCount="1" stopTime="0.00" timeLoss="15.99" rerouteNo="0" devices="tripinfo_WE_269" vType="car" speedFactor="0.96" vaporized=""/>
    <tripinfo id="NS_282" depart="282.00" departLane="2i_0" departPos="4.10" departSpeed="0.00" departDelay="0.00" arrival="360.00" arrivalLane="1o_0" arrivalPos="492.80" arrivalSpeed="9.89" duration="78.00" routeLength="995.90" waitingTime="0.00" waitingCount="0" stopTime="0.00" timeLoss="7.52" rerouteNo="0" devices="tripinfo_NS_282" vType="car" speedFactor="1.00" vaporized=""/>
    <tripinfo id="NS_288" depart="288.00" departLane="2i_0" departPos="4.10" departSpeed="0.00" departDelay="0.00" arrival="368.00" arrivalLane="1o_0" arrivalPos="492.80" arrivalSpeed="10.69" duration="80.00" routeLength="995.90" waitingTime="0.00" waitingCount="0" stopTime="0.00" timeLoss="8.72" rerouteNo="0" devices="tripinfo_NS_288" vType="car" speedFactor="0.99" vaporized=""/>
    <tripinfo id="NS_306" depart="306.00" departLane="2i_0" departPos="4.10" departSpeed="0.00" departDelay="0.00" arrival="376.00" arrivalLane="4o_0" arrivalPos="492.80" arrivalSpeed="12.43" duration="70.00" routeLength="990.53" waitingTime="0.00" waitingCount="0" stopTime="0.00" timeLoss="8.62" rerouteNo="0" devices="tripinfo_NS_306" vType="car" speedFactor="1.15" vaporized=""/>
    <tripinfo id="NS_303" depart="303.00" departLane="2i_0" departPos="4.10" departSpeed="0.00" departDelay="0.00" arrival="381.00" arrivalLane="1o_0" arrivalPos="492.80" arrivalSpeed="10.75" duration="78.00" routeLength="995.90" waitingTime="0.00" waitingCount="0" stopTime="0.00" timeLoss="8.50" rerouteNo="0" devices="tripinfo_NS_303" vType="car" speedFactor="1.02" vaporized=""/>
    <tripinfo id="WE_275" depart="278.00" departLane="1i_0" departPos="4.10" departSpeed="0.00" departDelay="3.00" arrival="385.00" arrivalLane="3o_0" arrivalPos="492.80" arrivalSpeed="11.37" duration="107.00" routeLength="990.53" waitingTime="22.00" waitingCount="1" stopTime="0.00" timeLoss="42.70" rerouteNo="0" devices="tripinfo_WE_275" vType="car" speedFactor="1.10" vaporized=""/>
    <tripinfo id="WE_271" depart="272.00" departLane="1i_0" departPos="4.10" departSpeed="0.00" departDelay="1.00" arrival="393.00" arrivalLane="4o_0" arrivalPos="492.80" arrivalSpeed="8.78" duration="121.00" routeLength="995.70" waitingTime="24.00" waitingCount="1" stopTime="0.00" timeLoss="39.48" rerouteNo="0" devices="tripinfo_WE_271" vType="car" speedFactor="0.87" vaporized=""/>
    <tripinfo id="WE_272" depart="275.00" departLane="1i_0" departPos="4.10" departSpeed="0.00" departDelay="3.00" arrival="395.00" arrivalLane="4o_0" arrivalPos="492.80" arrivalSpeed="12.00" duration="120.00" routeLength="995.70" waitingTime="22.00" waitingCount="1" stopTime="0.00" timeLoss="55.25" rerouteNo="0" devices="tripinfo_WE_272" vType="car" speedFactor="1.10" vaporized=""/>
    <tripinfo id="WE_297" depart="297.00" departLane="1i_0" departPos="4.10" departSpeed="0.00" departDelay="0.00" arrival="397.00" arrivalLane="4o_0" arrivalPos="492.80" arrivalSpeed="11.78" duration="100.00" routeLength="995.70" waitingTime="10.00" waitingCount="1" stopTime="0.00" timeLoss="33.41" rerouteNo="0" devices="tripinfo_WE_297" vType="car" speedFactor="1.07" vaporized=""/>
    <tripinfo id="NS_320" depart="320.00" departLane="2i_0" departPos="4.10" departSpeed="0.00" departDelay="0.00" arrival="397.00" arrivalLane="3o_0" arrivalPos="492.80" arrivalSpeed="10.97" duration="77.00" routeLength="995.70" waitingTime="0.00" waitingCount="0" stopTime="0.00" timeLoss="10.68" rerouteNo="0" devices="tripinfo_NS_320" vType="car" speedFactor="1.07" vaporized=""/>
    <tripinfo id="NS_311" depart="311.00" departLane="2i_0" departPos="4.10" departSpeed="0.00" departDelay="0.00" arrival="407.00" arrivalLane="1o_0" arrivalPos="492.80" arrivalSpeed="8.53" duration="96.00" routeLength="995.90" waitingTime="0.00" waitingCount="0" stopTime="0.00" timeLoss="9.46" rerouteNo="0" devices="tripinfo_NS_311" vType="car" speedFactor="0.82" vaporized=""/>
    <tripinfo id="NS_322" depart="324.00" departLane="2i_0" departPos="10.10" departSpeed="0.00" departDelay="2.00" arrival="409.00" arrivalLane="1o_0" arrivalPos="492.80" arrivalSpeed="10.63" duration="85.00" routeLength="989.90" waitingTime="0.00" waitingCount="0" stopTime="0.00" timeLoss="12.83" rerouteNo="0" devices="tripinfo_NS_322" vType="truck" speedFactor="0.98" vaporized=""/>
    <tripinfo id="NS_329" depart="329.00" departLane="2i_0" departPos="4.10" departSpeed="0.00" departDelay="0.00" arrival="410.00" arrivalLane="4o_0" arrivalPos="492.80" arrivalSpeed="9.97" duration="81.00" routeLength="990.53" waitingTime="0.00" waitingCount="0" stopTime="0.00" timeLoss="11.31" rerouteNo="0" devices="tripinfo_NS_329" vType="car" speedFactor="1.01" vaporized=""/>
    <tripinfo id="WE_303" depart="304.00" departLane="1i_0" departPos="4.10" departSpeed="0.00" departDelay="1.00" arrival="411.00" arrivalLane="3o_0" arrivalPos="492.80" arrivalSpeed="11.71" duration="107.00" routeLength="990.53" waitingTime="17.00" waitingCount="2" stopTime="0.00" timeLoss="43.16" rerouteNo="0" devices="tripinfo_WE_303" vType="car" speedFactor="1.10" vaporized=""/>
    <tripinfo id="WE_308" depart="308.00" departLane="1i_0" departPos="4.10" departSpeed="0.00" departDelay="0.00" arrival="415.00" arrivalLane="2o_0" arrivalPos="492.80" arrivalSpeed="11.20" duration="107.00" routeLength="995.90" waitingTime="15.00" waitingCount="2" stopTime="0.00" timeLoss="38.39" rerouteNo="0" devices="tripinfo_WE_308" vType="car" speedFactor="1.03" vaporized=""/>
    <tripinfo id="WE_302" depart="302.00" departLane="1i_0" departPos="4.10" departSpeed="0.00" departDelay="0.00" arrival="417.00" arrivalLane="4o_0" arrivalPos="492.80" arrivalSpeed="9.72" duration="115.00" routeLength="995.70" waitingTime="21.00" waitingCount="2" stopTime="0.00" timeLoss="39.52" rerouteNo="0" devices="tripinfo_WE_302" vType="car" speedFactor="0.94" vaporized=""/>
    <tripinfo id="WE_315" depart="315.00" departLane="1i_0" departPos="4.10" departSpeed="0.00" departDelay="0.00" arrival="419.00" arrivalLane="3o_0" arrivalPos="492.80" arrivalSpeed="11.20" duration="104.00" routeLength="990.53" waitingTime="14.00" waitingCount="1" stopTime="0.00" timeLoss="33.40" rerouteNo="0" devices="tripinfo_WE_315" vType="car" speedFactor="1.01" vaporized=""/>
    <tripinfo id="WE_316" depart="317.00" departLane="1i_0" departPos="4.10" departSpeed="0.00" departDelay="1.00" arrival="420.00" arrivalLane="2o_0" arrivalPos="492.80" arrivalSpeed="11.39" duration="103.00" routeLength="995.90" waitingTime="12.00" waitingCount="1" stopTime="0.00" timeLoss="33.67" rerouteNo="0" devices="tripinfo_WE_316" vType="car" speedFactor="1.03" vaporized=""/>