<?xml version="1.0" encoding="UTF-8"?>

<!-- generated on 2024-05-05 22:10:19 by Eclipse SUMO sumo Version 1.19.0
<configuration xmlns:xsi="http://www.w3.org/2001/XMLSchema-instance" xsi:noNamespaceSchemaLocation="http://sumo.dlr.de/xsd/sumoConfiguration.xsd">

    <input>
        <net-file value="twoone.net.xml"/>
        <route-files value="route_gen.rou.xml"/>
    </input>

    <output>
        <tripinfo-output value="tripinfo_epi215.xml"/>
    </output>

    <report>
        <no-warnings value="true"/>
    </report>

    <traci_server>
        <remote-port value="34913"/>
    </traci_server>

</configuration>
-->

<tripinfos xmlns:xsi="http://www.w3.org/2001/XMLSchema-instance" xsi:noNamespaceSchemaLocation="http://sumo.dlr.de/xsd/tripinfo_file.xsd">
    <tripinfo id="WE_8" depart="8.00" departLane="1i_0" departPos="4.10" departSpeed="0.00" departDelay="0.00" arrival="81.00" arrivalLane="2o_0" arrivalPos="492.80" arrivalSpeed="11.02" duration="73.00" routeLength="995.90" waitingTime="0.00" waitingCount="0" stopTime="0.00" timeLoss="7.20" rerouteNo="0" devices="tripinfo_WE_8" vType="car" speedFactor="1.08" vaporized=""/>
    <tripinfo id="NS_4" depart="4.00" departLane="2i_0" departPos="10.10" departSpeed="0.00" departDelay="0.00" arrival="92.00" arrivalLane="3o_0" arrivalPos="492.80" arrivalSpeed="10.39" duration="88.00" routeLength="989.70" waitingTime="0.00" waitingCount="0" stopTime="0.00" timeLoss="15.56" rerouteNo="0" devices="tripinfo_NS_4" vType="truck" speedFactor="0.97" vaporized=""/>
    <tripinfo id="NS_10" depart="10.00" departLane="2i_0" departPos="4.10" departSpeed="0.00" departDelay="0.00" arrival="93.00" arrivalLane="1o_0" arrivalPos="492.80" arrivalSpeed="10.36" duration="83.00" routeLength="995.90" waitingTime="0.00" waitingCount="0" stopTime="0.00" timeLoss="14.74" rerouteNo="0" devices="tripinfo_NS_10" vType="car" speedFactor="1.05" vaporized=""/>
    <tripinfo id="WE_11" depart="14.00" departLane="1i_0" departPos="10.10" departSpeed="0.00" departDelay="3.00" arrival="101.00" arrivalLane="2o_0" arrivalPos="492.80" arrivalSpeed="9.90" duration="87.00" routeLength="989.90" waitingTime="0.00" waitingCount="0" stopTime="0.00" timeLoss="11.58" rerouteNo="0" devices="tripinfo_WE_11" vType="truck" speedFactor="0.94" vaporized=""/>
    <tripinfo id="WE_15" depart="21.00" departLane="1i_0" departPos="4.10" departSpeed="0.00" departDelay="6.00" arrival="103.00" arrivalLane="2o_0" arrivalPos="492.80" arrivalSpeed="11.96" duration="82.00" routeLength="995.90" waitingTime="0.00" waitingCount="0" stopTime="0.00" timeLoss="16.68" rerouteNo="0" devices="tripinfo_WE_15" vType="car" speedFactor="1.09" vaporized=""/>
    <tripinfo id="WE_14" depart="18.00" departLane="1i_0" departPos="4.10" departSpeed="0.00" departDelay="4.00" arrival="104.00" arrivalLane="3o_0" arrivalPos="492.80" arrivalSpeed="9.61" duration="86.00" routeLength="990.53" waitingTime="0.00" waitingCount="0" stopTime="0.00" timeLoss="10.86" rerouteNo="0" devices="tripinfo_WE_14" vType="car" speedFactor="0.94" vaporized=""/>
    <tripinfo id="WE_9" depart="11.00" departLane="1i_0" departPos="4.10" departSpeed="0.00" departDelay="2.00" arrival="107.00" arrivalLane="4o_0" arrivalPos="492.80" arrivalSpeed="8.79" duration="96.00" routeLength="995.70" waitingTime="0.00" waitingCount="0" stopTime="0.00" timeLoss="10.35" rerouteNo="0" devices="tripinfo_WE_9" vType="car" speedFactor="0.83" vaporized=""/>
    <tripinfo id="WE_40" depart="40.00" departLane="1i_0" departPos="4.10" departSpeed="0.00" departDelay="0.00" arrival="112.00" arrivalLane="3o_0" arrivalPos="492.80" arrivalSpeed="11.80" duration="72.00" routeLength="990.53" waitingTime="0.00" waitingCount="0" stopTime="0.00" timeLoss="10.87" rerouteNo="0" devices="tripinfo_WE_40" vType="car" speedFactor="1.16" vaporized=""/>
    <tripinfo id="WE_36" depart="36.00" departLane="1i_0" departPos="4.10" departSpeed="0.00" departDelay="0.00" arrival="122.00" arrivalLane="4o_0" arrivalPos="492.80" arrivalSpeed="9.90" duration="86.00" routeLength="995.70" waitingTime="0.00" waitingCount="0" stopTime="0.00" timeLoss="10.11" rerouteNo="0" devices="tripinfo_WE_36" vType="car" speedFactor="0.94" vaporized=""/>
    <tripinfo id="WE_43" depart="43.00" departLane="1i_0" departPos="4.10" departSpeed="0.00" departDelay="0.00" arrival="124.00" arrivalLane="4o_0" arrivalPos="492.80" arrivalSpeed="10.31" duration="81.00" routeLength="995.70" waitingTime="0.00" waitingCount="0" stopTime="0.00" timeLoss="11.06" rerouteNo="0" devices="tripinfo_WE_43" vType="car" speedFactor="1.02" vaporized=""/>
    <tripinfo id="WE_47" depart="47.00" departLane="1i_0" departPos="4.10" departSpeed="0.00" departDelay="0.00" arrival="130.00" arrivalLane="4o_0" arrivalPos="492.80" arrivalSpeed="10.04" duration="83.00" routeLength="995.70" waitingTime="0.00" waitingCount="0" stopTime="0.00" timeLoss="10.27" rerouteNo="0" devices="tripinfo_WE_47" vType="car" speedFactor="0.97" vaporized=""/>
    <tripinfo id="NS_61" depart="61.00" departLane="2i_0" departPos="4.10" departSpeed="0.00" departDelay="0.00" arrival="132.00" arrivalLane="4o_0" arrivalPos="492.80" arrivalSpeed="12.80" duration="71.00" routeLength="990.53" waitingTime="0.00" waitingCount="0" stopTime="0.00" timeLoss="9.41" rerouteNo="0" devices="tripinfo_NS_61" vType="car" speedFactor="1.15" vaporized=""/>
    <tripinfo id="NS_65" depart="65.00" departLane="2i_0" departPos="4.10" departSpeed="0.00" departDelay="0.00" arrival="134.00" arrivalLane="1o_0" arrivalPos="492.80" arrivalSpeed="11.98" duration="69.00" routeLength="995.90" waitingTime="0.00" waitingCount="0" stopTime="0.00" timeLoss="8.14" rerouteNo="0" devices="tripinfo_NS_65" vType="car" speedFactor="1.17" vaporized=""/>
    <tripinfo id="WE_54" depart="54.00" departLane="1i_0" departPos="4.10" departSpeed="0.00" departDelay="0.00" arrival="139.00" arrivalLane="3o_0" arrivalPos="492.80" arrivalSpeed="8.93" duration="85.00" routeLength="990.53" waitingTime="0.00" waitingCount="0" stopTime="0.00" timeLoss="7.63" rerouteNo="0" devices="tripinfo_WE_54" vType="car" speedFactor="0.92" vaporized=""/>
    <tripinfo id="WE_63" depart="63.00" departLane="1i_0" departPos="4.10" departSpeed="0.00" departDelay="0.00" arrival="144.00" arrivalLane="3o_0" arrivalPos="492.80" arrivalSpeed="10.12" duration="81.00" routeLength="990.53" waitingTime="0.00" waitingCount="0" stopTime="0.00" timeLoss="10.43" rerouteNo="0" devices="tripinfo_WE_63" vType="car" speedFactor="1.01" vaporized=""/>
    <tripinfo id="WE_60" depart="60.00" departLane="1i_0" departPos="4.10" departSpeed="0.00" departDelay="0.00" arrival="147.00" arrivalLane="4o_0" arrivalPos="492.80" arrivalSpeed="9.20" duration="87.00" routeLength="995.70" waitingTime="0.00" waitingCount="0" stopTime="0.00" timeLoss="10.48" rerouteNo="0" devices="tripinfo_WE_60" vType="car" speedFactor="0.93" vaporized=""/>
    <tripinfo id="NS_69" depart="69.00" departLane="2i_0" departPos="4.10" departSpeed="0.00" departDelay="0.00" arrival="148.00" arrivalLane="4o_0" arrivalPos="492.80" arrivalSpeed="10.26" duration="79.00" routeLength="990.53" waitingTime="0.00" waitingCount="0" stopTime="0.00" timeLoss="8.39" rerouteNo="0" devices="tripinfo_NS_69" vType="car" speedFactor="0.99" vaporized=""/>
    <tripinfo id="WE_76" depart="76.00" departLane="1i_0" departPos="4.10" departSpeed="0.00" departDelay="0.00" arrival="155.00" arrivalLane="4o_0" arrivalPos="492.80" arrivalSpeed="10.96" duration="79.00" routeLength="995.70" waitingTime="0.00" waitingCount="0" stopTime="0.00" timeLoss="9.49" rerouteNo="0" devices="tripinfo_WE_76" vType="car" speedFactor="1.02" vaporized=""/>
    <tripinfo id="NS_83" depart="83.00" departLane="2i_0" departPos="4.10" departSpeed="0.00" departDelay="0.00" arrival="164.00" arrivalLane="1o_0" arrivalPos="492.80" arrivalSpeed="10.73" duration="81.00" routeLength="995.90" waitingTime="0.00" waitingCount="0" stopTime="0.00" timeLoss="7.89" rerouteNo="0" devices="tripinfo_NS_83" vType="car" speedFactor="0.97" vaporized=""/>
    <tripinfo id="WE_87" depart="87.00" departLane="1i_0" departPos="4.10" departSpeed="0.00" departDelay="0.00" arrival="175.00" arrivalLane="3o_0" arrivalPos="492.80" arrivalSpeed="9.75" duration="88.00" routeLength="990.53" waitingTime="0.00" waitingCount="0" stopTime="0.00" timeLoss="9.26" rerouteNo="0" devices="tripinfo_WE_87" vType="car" speedFactor="0.90" vaporized=""/>
    <tripinfo id="NS_106" depart="106.00" departLane="2i_0" departPos="4.10" departSpeed="0.00" departDelay="0.00" arrival="180.00" arrivalLane="1o_0" arrivalPos="492.80" arrivalSpeed="10.88" duration="74.00" routeLength="995.90" waitingTime="0.00" waitingCount="0" stopTime="0.00" timeLoss="8.40" rerouteNo="0" devices="tripinfo_NS_106" vType="car" speedFactor="1.09" vaporized=""/>
    <tripinfo id="NS_112" depart="112.00" departLane="2i_0" departPos="4.10" departSpeed="0.00" departDelay="0.00" arrival="194.00" arrivalLane="3o_0" arrivalPos="492.80" arrivalSpeed="10.83" duration="82.00" routeLength="995.70" waitingTime="0.00" waitingCount="0" stopTime="0.00" timeLoss="10.81" rerouteNo="0" devices="tripinfo_NS_112" vType="car" speedFactor="1.00" vaporized=""/>
    <tripinfo id="WE_130" depart="130.00" departLane="1i_0" departPos="4.10" departSpeed="0.00" departDelay="0.00" arrival="208.00" arrivalLane="3o_0" arrivalPos="492.80" arrivalSpeed="10.58" duration="78.00" routeLength="990.53" waitingTime="0.00" waitingCount="0" stopTime="0.00" timeLoss="8.11" rerouteNo="0" devices="tripinfo_WE_130" vType="car" speedFactor="1.02" vaporized=""/>
    <tripinfo id="NS_126" depart="126.00" departLane="2i_0" departPos="10.10" departSpeed="0.00" departDelay="0.00" arrival="214.00" arrivalLane="4o_0" arrivalPos="492.80" arrivalSpeed="10.18" duration="88.00" routeLength="984.53" waitingTime="0.00" waitingCount="0" stopTime="0.00" timeLoss="11.99" rerouteNo="0" devices="tripinfo_NS_126" vType="truck" speedFactor="0.93" vaporized=""/>
    <tripinfo id="WE_135" depart="135.00" departLane="1i_0" departPos="4.10" departSpeed="0.00" departDelay="0.00" arrival="222.00" arrivalLane="3o_0" arrivalPos="492.80" arrivalSpeed="9.93" duration="87.00" routeLength="990.53" waitingTime="0.00" waitingCount="0" stopTime="0.00" timeLoss="8.96" rerouteNo="0" devices="tripinfo_WE_135" vType="car" speedFactor="0.90" vaporized=""/>
    <tripinfo id="NS_135" depart="140.00" departLane="2i_0" departPos="4.10" departSpeed="0.00" departDelay="5.00" arrival="224.00" arrivalLane="1o_0" arrivalPos="492.80" arrivalSpeed="11.83" duration="84.00" routeLength="995.90" waitingTime="2.00" waitingCount="1" stopTime="0.00" timeLoss="22.21" rerouteNo="0" devices="tripinfo_NS_135" vType="car" speedFactor="1.14" vaporized=""/>
    <tripinfo id="WE_145" depart="145.00" departLane="1i_0" departPos="4.10" departSpeed="0.00" departDelay="0.00" arrival="224.00" arrivalLane="3o_0" arrivalPos="492.80" arrivalSpeed="11.33" duration="79.00" routeLength="990.53" waitingTime="0.00" waitingCount="0" stopTime="0.00" timeLoss="13.70" rerouteNo="0" devices="tripinfo_WE_145" vType="car" speedFactor="1.08" vaporized=""/>
    <tripinfo id="NS_132" depart="132.00" departLane="2i_0" departPos="4.10" departSpeed="0.00" departDelay="0.00" arrival="226.00" arrivalLane="3o_0" arrivalPos="492.80" arrivalSpeed="11.95" duration="94.00" routeLength="995.70" waitingTime="6.00" waitingCount="1" stopTime="0.00" timeLoss="28.96" rerouteNo="0" devices="tripinfo_NS_132" vType="car" speedFactor="1.10" vaporized=""/>
    <tripinfo id="NS_133" depart="135.00" departLane="2i_0" departPos="4.10" departSpeed="0.00" departDelay="2.00" arrival="226.00" arrivalLane="4o_0" arrivalPos="492.80" arrivalSpeed="10.94" duration="91.00" routeLength="990.53" waitingTime="5.00" waitingCount="1" stopTime="0.00" timeLoss="20.81" rerouteNo="0" devices="tripinfo_NS_133" vType="car" speedFactor="1.00" vaporized=""/>
    <tripinfo id="NS_134" depart="138.00" departLane="2i_0" departPos="4.10" departSpeed="0.00" departDelay="4.00" arrival="229.00" arrivalLane="3o_0" arrivalPos="492.80" arrivalSpeed="9.97" duration="91.00" routeLength="995.70" waitingTime="2.00" waitingCount="1" stopTime="0.00" timeLoss="19.47" rerouteNo="0" devices="tripinfo_NS_134" vType="car" speedFactor="1.00" vaporized=""/>
    <tripinfo id="NS_149" depart="149.00" departLane="2i_0" departPos="4.10" departSpeed="0.00" departDelay="0.00" arrival="235.00" arrivalLane="1o_0" arrivalPos="492.80" arrivalSpeed="9.58" duration="86.00" routeLength="995.90" waitingTime="0.00" waitingCount="0" stopTime="0.00" timeLoss="10.47" rerouteNo="0" devices="tripinfo_NS_149" vType="car" speedFactor="0.94" vaporized=""/>
    <tripinfo id="NS_160" depart="160.00" departLane="2i_0" departPos="4.10" departSpeed="0.00" departDelay="0.00" arrival="246.00" arrivalLane="4o_0" arrivalPos="492.80" arrivalSpeed="9.59" duration="86.00" routeLength="990.53" waitingTime="0.00" waitingCount="0" stopTime="0.00" timeLoss="8.64" rerouteNo="0" devices="tripinfo_NS_160" vType="car" speedFactor="0.91" vaporized=""/>
    <tripinfo id="WE_148" depart="148.00" departLane="1i_0" departPos="4.10" departSpeed="0.00" departDelay="0.00" arrival="248.00" arrivalLane="4o_0" arrivalPos="492.80" arrivalSpeed="10.96" duration="100.00" routeLength="995.70" waitingTime="14.00" waitingCount="1" stopTime="0.00" timeLoss="28.09" rerouteNo="0" devices="tripinfo_WE_148" vType="car" speedFactor="0.99" vaporized=""/>
    <tripinfo id="WE_171" depart="171.00" departLane="1i_0" departPos="4.10" departSpeed="0.00" departDelay="0.00" arrival="253.00" arrivalLane="4o_0" arrivalPos="492.80" arrivalSpeed="10.46" duration="82.00" routeLength="995.70" waitingTime="0.00" waitingCount="0" stopTime="0.00" timeLoss="9.14" rerouteNo="0" devices="tripinfo_WE_171" vType="car" speedFactor="0.97" vaporized=""/>
    <tripinfo id="WE_172" depart="173.00" departLane="1i_0" departPos="4.10" departSpeed="0.00" departDelay="1.00" arrival="258.00" arrivalLane="3o_0" arrivalPos="492.80" arrivalSpeed="9.60" duration="85.00" routeLength="990.53" waitingTime="1.00" waitingCount="1" stopTime="0.00" timeLoss="9.76" rerouteNo="0" devices="tripinfo_WE_172" vType="car" speedFactor="0.94" vaporized=""/>
    <tripinfo id="NS_190" depart="190.00" departLane="2i_0" departPos="4.10" departSpeed="0.00" departDelay="0.00" arrival="271.00" arrivalLane="4o_0" arrivalPos="492.80" arrivalSpeed="9.62" duration="81.00" routeLength="990.53" waitingTime="0.00" waitingCount="0" stopTime="0.00" timeLoss="8.95" rerouteNo="0" devices="tripinfo_NS_190" vType="car" speedFactor="0.98" vaporized=""/>
    <tripinfo id="WE_195" depart="195.00" departLane="1i_0" departPos="4.10" departSpeed="0.00" departDelay="0.00" arrival="274.00" arrivalLane="3o_0" arrivalPos="492.80" arrivalSpeed="10.08" duration="79.00" routeLength="990.53" waitingTime="0.00" waitingCount="0" stopTime="0.00" timeLoss="8.34" rerouteNo="0" devices="tripinfo_WE_195" vType="car" speedFactor="1.01" vaporized=""/>
    <tripinfo id="WE_199" depart="199.00" departLane="1i_0" departPos="4.10" departSpeed="0.00" departDelay="0.00" arrival="275.00" arrivalLane="4o_0" arrivalPos="492.80" arrivalSpeed="11.59" duration="76.00" routeLength="995.70" waitingTime="0.00" waitingCount="0" stopTime="0.00" timeLoss="10.17" rerouteNo="0" devices="tripinfo_WE_199" vType="car" speedFactor="1.09" vaporized=""/>
    <tripinfo id="WE_202" depart="202.00" departLane="1i_0" departPos="4.10" departSpeed="0.00" departDelay="0.00" arrival="282.00" arrivalLane="2o_0" arrivalPos="492.80" arrivalSpeed="10.02" duration="80.00" routeLength="995.90" waitingTime="0.00" waitingCount="0" stopTime="0.00" timeLoss="8.41" rerouteNo="0" devices="tripinfo_WE_202" vType="car" speedFactor="1.00" vaporized=""/>
    <tripinfo id="WE_207" depart="207.00" departLane="1i_0" departPos="4.10" departSpeed="0.00" departDelay="0.00" arrival="285.00" arrivalLane="3o_0" arrivalPos="492.80" arrivalSpeed="10.11" duration="78.00" routeLength="990.53" waitingTime="0.00" waitingCount="0" stopTime="0.00" timeLoss="8.24" rerouteNo="0" devices="tripinfo_WE_207" vType="car" speedFactor="1.02" vaporized=""/>
    <tripinfo id="WE_211" depart="211.00" departLane="1i_0" departPos="4.10" departSpeed="0.00" departDelay="0.00" arrival="292.00" arrivalLane="3o_0" arrivalPos="492.80" arrivalSpeed="9.63" duration="81.00" routeLength="990.53" waitingTime="0.00" waitingCount="0" stopTime="0.00" timeLoss="8.29" rerouteNo="0" devices="tripinfo_WE_211" vType="car" speedFactor="0.97" vaporized=""/>
    <tripinfo id="WE_217" depart="217.00" departLane="1i_0" departPos="4.10" departSpeed="0.00" departDelay="0.00" arrival="294.00" arrivalLane="3o_0" arrivalPos="492.80" arrivalSpeed="11.01" duration="77.00" routeLength="990.53" waitingTime="0.00" waitingCount="0" stopTime="0.00" timeLoss="9.29" rerouteNo="0" devices="tripinfo_WE_217" vType="car" speedFactor="1.04" vaporized=""/>
    <tripinfo id="NS_214" depart="214.00" departLane="2i_0" departPos="4.10" departSpeed="0.00" departDelay="0.00" arrival="295.00" arrivalLane="1o_0" arrivalPos="492.80" arrivalSpeed="10.43" duration="81.00" routeLength="995.90" waitingTime="0.00" waitingCount="0" stopTime="0.00" timeLoss="8.18" rerouteNo="0" devices="tripinfo_NS_214" vType="car" speedFactor="0.98" vaporized=""/>
    <tripinfo id="EW_0" depart="0.00" departLane="4i_0" departPos="4.10" departSpeed="0.00" departDelay="0.00" arrival="299.00" arrivalLane="3o_0" arrivalPos="492.80" arrivalSpeed="10.50" duration="299.00" routeLength="995.90" waitingTime="219.00" waitingCount="1" stopTime="0.00" timeLoss="232.18" rerouteNo="0" devices="tripinfo_EW_0" vType="car" speedFactor="1.06" vaporized=""/>
    <tripinfo id="NS_222" depart="222.00" departLane="2i_0" departPos="4.10" departSpeed="0.00" departDelay="0.00" arrival="300.00" arrivalLane="4o_0" arrivalPos="492.80" arrivalSpeed="10.42" duration="78.00" routeLength="990.53" waitingTime="0.00" waitingCount="0" stopTime="0.00" timeLoss="8.31" rerouteNo="0" devices="tripinfo_NS_222" vType="car" speedFactor="1.02" vaporized=""/>
    <tripinfo id="SN_5" depart="5.00" departLane="3i_0" departPos="4.10" departSpeed="0.00" departDelay="0.00" arrival="301.00" arrivalLane="2o_0" arrivalPos="492.80" arrivalSpeed="10.23" duration="296.00" routeLength="990.53" waitingTime="213.00" waitingCount="1" stopTime="0.00" timeLoss="225.95" rerouteNo="0" devices="tripinfo_SN_5" vType="car" speedFactor="1.01" vaporized=""/>
    <tripinfo id="EW_8" depart="8.00" departLane="4i_0" departPos="4.10" departSpeed="0.00" departDelay="0.00" arrival="303.00" arrivalLane="3o_0" arrivalPos="492.80" arrivalSpeed="11.32" duration="295.00" routeLength="995.90" waitingTime="211.00" waitingCount="1" stopTime="0.00" timeLoss="226.05" rerouteNo="0" devices="tripinfo_EW_8" vType="car" speedFactor="1.03" vaporized=""/>
    <tripinfo id="SN_22" depart="22.00" departLane="3i_0" departPos="4.10" departSpeed="0.00" departDelay="0.00" arrival="303.00" arrivalLane="2o_0" arrivalPos="492.80" arrivalSpeed="11.63" duration="281.00" routeLength="990.53" waitingTime="197.00" waitingCount="1" stopTime="0.00" timeLoss="213.04" rerouteNo="0" devices="tripinfo_SN_22" vType="car" speedFactor="1.05" vaporized=""/>
    <tripinfo id="EW_23" depart="23.00" departLane="4i_0" departPos="4.10" departSpeed="0.00" departDelay="0.00" arrival="303.00" arrivalLane="1o_0" arrivalPos="492.80" arrivalSpeed="11.22" duration="280.00" routeLength="990.53" waitingTime="201.00" waitingCount="1" stopTime="0.00" timeLoss="217.10" rerouteNo="0" devices="tripinfo_EW_23" vType="car" speedFactor="1.12" vaporized=""/>
    <tripinfo id="SN_24" depart="25.00" departLane="3i_0" departPos="4.10" departSpeed="0.00" departDelay="1.00" arrival="306.00" arrivalLane="4o_0" arrivalPos="492.80" arrivalSpeed="9.94" duration="281.00" routeLength="995.90" waitingTime="195.00" waitingCount="1" stopTime="0.00" timeLoss="209.14" rerouteNo="0" devices="tripinfo_SN_24" vType="car" speedFactor="0.99" vaporized=""/>
    <tripinfo id="EW_20" depart="20.00" departLane="4i_0" departPos="4.10" departSpeed="0.00" departDelay="0.00" arrival="307.00" arrivalLane="2o_0" arrivalPos="492.80" arrivalSpeed="10.47" duration="287.00" routeLength="995.70" waitingTime="201.00" waitingCount="1" stopTime="0.00" timeLoss="217.51" rerouteNo="0" devices="tripinfo_EW_20" vType="car" speedFactor="1.03" vaporized=""/>
    <tripinfo id="EW_14" depart="14.00" departLane="4i_0" departPos="4.10" departSpeed="0.00" departDelay="0.00" arrival="314.00" arrivalLane="3o_0" arrivalPos="492.80" arrivalSpeed="9.31" duration="300.00" routeLength="995.90" waitingTime="203.00" waitingCount="1" stopTime="0.00" timeLoss="217.26" rerouteNo="0" devices="tripinfo_EW_14" vType="car" speedFactor="0.86" vaporized=""/>
    <tripinfo id="NS_237" depart="237.00" departLane="2i_0" departPos="4.10" departSpeed="0.00" departDelay="0.00" arrival="315.00" arrivalLane="4o_0" arrivalPos="492.80" arrivalSpeed="10.93" duration="78.00" routeLength="990.53" waitingTime="0.00" waitingCount="0" stopTime="0.00" timeLoss="8.11" rerouteNo="0" devices="tripinfo_NS_237" vType="car" speedFactor="1.01" vaporized=""/>
    <tripinfo id="NS_240" depart="240.00" departLane="2i_0" departPos="4.10" departSpeed="0.00" departDelay="0.00" arrival="317.00" arrivalLane="4o_0" arrivalPos="492.80" arrivalSpeed="11.40" duration="77.00" routeLength="990.53" waitingTime="0.00" waitingCount="0" stopTime="0.00" timeLoss="10.36" rerouteNo="0" devices="tripinfo_NS_240" vType="car" speedFactor="1.06" vaporized=""/>
    <tripinfo id="SN_35" depart="35.00" departLane="3i_0" departPos="4.10" departSpeed="0.00" departDelay="0.00" arrival="320.00" arrivalLane="1o_0" arrivalPos="492.80" arrivalSpeed="9.10" duration="285.00" routeLength="995.70" waitingTime="184.00" waitingCount="1" stopTime="0.00" timeLoss="204.20" rerouteNo="0" devices="tripinfo_SN_35" vType="car" speedFactor="0.88" vaporized=""/>
    <tripinfo id="WE_231" depart="231.00" departLane="1i_0" departPos="4.10" departSpeed="0.00" departDelay="0.00" arrival="320.00" arrivalLane="3o_0" arrivalPos="492.80" arrivalSpeed="8.86" duration="89.00" routeLength="990.53" waitingTime="0.00" waitingCount="0" stopTime="0.00" timeLoss="9.41" rerouteNo="0" devices="tripinfo_WE_231" vType="car" speedFactor="0.89" vaporized=""/>
    <tripinfo id="WE_240" depart="240.00" departLane="1i_0" departPos="4.10" departSpeed="0.00" departDelay="0.00" arrival="321.00" arrivalLane="3o_0" arrivalPos="492.80" arrivalSpeed="11.35" duration="81.00" routeLength="990.53" waitingTime="0.00" waitingCount="0" stopTime="0.00" timeLoss="16.86" rerouteNo="0" devices="tripinfo_WE_240" vType="car" speedFactor="1.10" vaporized=""/>
    <tripinfo id="WE_238" depart="238.00" departLane="1i_0" departPos="4.10" departSpeed="0.00" departDelay="0.00" arrival="324.00" arrivalLane="2o_0" arrivalPos="492.80" arrivalSpeed="8.83" duration="86.00" routeLength="995.90" waitingTime="0.00" waitingCount="0" stopTime="0.00" timeLoss="7.95" rerouteNo="0" devices="tripinfo_WE_238" vType="car" speedFactor="0.91" vaporized=""/>
    <tripinfo id="EW_33" depart="33.00" departLane="4i_0" departPos="10.10" departSpeed="0.00" departDelay="0.00" arrival="330.00" arrivalLane="3o_0" arrivalPos="492.80" arrivalSpeed="10.56" duration="297.00" routeLength="989.90" waitingTime="194.00" waitingCount="2" stopTime="0.00" timeLoss="223.32" rerouteNo="0" devices="tripinfo_EW_33" vType="truck" speedFactor="0.96" vaporized=""/>
    <tripinfo id="NS_243" depart="243.00" departLane="2i_0" departPos="4.10" departSpeed="0.00" departDelay="0.00" arrival="334.00" arrivalLane="3o_0" arrivalPos="492.80" arrivalSpeed="9.58" duration="91.00" routeLength="995.70" waitingTime="3.00" waitingCount="2" stopTime="0.00" timeLoss="17.49" rerouteNo="0" devices="tripinfo_NS_243" vType="car" speedFactor="0.97" vaporized=""/>
    <tripinfo id="WE_245" depart="245.00" departLane="1i_0" departPos="4.10" departSpeed="0.00" departDelay="0.00" arrival="335.00" arrivalLane="4o_0" arrivalPos="492.80" arrivalSpeed="9.61" duration="90.00" routeLength="995.70" waitingTime="2.00" waitingCount="1" stopTime="0.00" timeLoss="15.81" rerouteNo="0" devices="tripinfo_WE_245" vType="car" speedFactor="0.95" vaporized=""/>
    <tripinfo id="EW_53" depart="53.00" departLane="4i_0" departPos="4.10" departSpeed="0.00" departDelay="0.00" arrival="337.00" arrivalLane="1o_0" arrivalPos="492.80" arrivalSpeed="9.24" duration="284.00" routeLength="990.53" waitingTime="178.00" waitingCount="2" stopTime="0.00" timeLoss="203.23" rerouteNo="0" devices="tripinfo_EW_53" vType="car" speedFactor="0.87" vaporized=""/>
    <tripinfo id="EW_55" depart="56.00" departLane="4i_0" departPos="4.10" departSpeed="0.00" departDelay="1.00" arrival="338.00" arrivalLane="3o_0" arrivalPos="492.80" arrivalSpeed="10.20" duration="282.00" routeLength="995.90" waitingTime="176.00" waitingCount="2" stopTime="0.00" timeLoss="207.31" rerouteNo="0" devices="tripinfo_EW_55" vType="car" speedFactor="0.95" vaporized=""/>
    <tripinfo id="EW_59" depart="59.00" departLane="4i_0" departPos="4.10" departSpeed="0.00" departDelay="0.00" arrival="340.00" arrivalLane="3o_0" arrivalPos="492.80" arrivalSpeed="12.56" duration="281.00" routeLength="995.90" waitingTime="173.00" waitingCount="2" stopTime="0.00" timeLoss="217.85" rerouteNo="0" devices="tripinfo_EW_59" vType="car" speedFactor="1.13" vaporized=""/>
    <tripinfo id="EW_84" depart="84.00" departLane="4i_0" departPos="4.10" departSpeed="0.00" departDelay="0.00" arrival="341.00" arrivalLane="3o_0" arrivalPos="492.80" arrivalSpeed="12.72" duration="257.00" routeLength="995.90" waitingTime="154.00" waitingCount="2" stopTime="0.00" timeLoss="197.04" rerouteNo="0" devices="tripinfo_EW_84" vType="car" speedFactor="1.18" vaporized=""/>
    <tripinfo id="EW_104" depart="104.00" departLane="4i_0" departPos="4.10" departSpeed="0.00" departDelay="0.00" arrival="342.00" arrivalLane="1o_0" arrivalPos="492.80" arrivalSpeed="11.12" duration="238.00" routeLength="990.53" waitingTime="136.00" waitingCount="2" stopTime="0.00" timeLoss="170.15" rerouteNo="0" devices="tripinfo_EW_104" vType="car" speedFactor="1.04" vaporized=""/>
    <tripinfo id="EW_86" depart="87.00" departLane="4i_0" departPos="4.10" departSpeed="0.00" departDelay="1.00" arrival="343.00" arrivalLane="3o_0" arrivalPos="492.80" arrivalSpeed="11.64" duration="256.00" routeLength="995.90" waitingTime="151.00" waitingCount="2" stopTime="0.00" timeLoss="191.74" rerouteNo="0" devices="tripinfo_EW_86" vType="car" speedFactor="1.10" vaporized=""/>
    <tripinfo id="EW_106" depart="107.00" departLane="4i_0" departPos="4.10" departSpeed="0.00" departDelay="1.00" arrival="344.00" arrivalLane="1o_0" arrivalPos="492.80" arrivalSpeed="10.50" duration="237.00" routeLength="990.53" waitingTime="134.00" waitingCount="2" stopTime="0.00" timeLoss="169.46" rerouteNo="0" devices="tripinfo_EW_106" vType="car" speedFactor="1.04" vaporized=""/>
    <tripinfo id="EW_97" depart="97.00" departLane="4i_0" departPos="4.10" departSpeed="0.00" departDelay="0.00" arrival="345.00" arrivalLane="3o_0" arrivalPos="492.80" arrivalSpeed="10.56" duration="248.00" routeLength="995.90" waitingTime="143.00" waitingCount="2" stopTime="0.00" timeLoss="179.25" rerouteNo="0" devices="tripinfo_EW_97" vType="car" speedFactor="1.03" vaporized=""/>
    <tripinfo id="EW_113" depart="113.00" departLane="4i_0" departPos="4.10" departSpeed="0.00" departDelay="0.00" arrival="355.00" arrivalLane="2o_0" arrivalPos="492.80" arrivalSpeed="9.93" duration="242.00" routeLength="995.70" waitingTime="126.00" waitingCount="2" stopTime="0.00" timeLoss="162.78" rerouteNo="0" devices="tripinfo_EW_113" vType="car" speedFactor="0.90" vaporized=""/>
    <tripinfo id="EW_142" depart="142.00" departLane="4i_0" departPos="10.10" departSpeed="0.00" departDelay="0.00" arrival="357.00" arrivalLane="2o_0" arrivalPos="492.80" arrivalSpeed="10.88" duration="215.00" routeLength="989.70" waitingTime="93.00" waitingCount="2" stopTime="0.00" timeLoss="145.38" rerouteNo="0" devices="tripinfo_EW_142" vType="truck" speedFactor="1.01" vaporized=""/>
    <tripinfo id="EW_161" depart="161.00" departLane="4i_0" departPos="4.10" departSpeed="0.00" departDelay="0.00" arrival="358.00" arrivalLane="1o_0" arrivalPos="492.80" arrivalSpeed="11.42" duration="197.00" routeLength="990.53" waitingTime="86.00" waitingCount="2" stopTime="0.00" timeLoss="128.68" rerouteNo="0" devices="tripinfo_EW_161" vType="car" speedFactor="1.04" vaporized=""/>
    <tripinfo id="EW_144" depart="148.00" departLane="4i_0" departPos="4.10" departSpeed="0.00" departDelay="4.00" arrival="360.00" arrivalLane="2o_0" arrivalPos="492.80" arrivalSpeed="9.95" duration="212.00" routeLength="995.70" waitingTime="93.00" waitingCount="2" stopTime="0.00" timeLoss="138.44" rerouteNo="0" devices="tripinfo_EW_144" vType="car" speedFactor="0.97" vaporized=""/>
    <tripinfo id="EW_165" depart="165.00" departLane="4i_0" departPos="4.10" departSpeed="0.00" departDelay="0.00" arrival="361.00" arrivalLane="3o_0" arrivalPos="492.80" arrivalSpeed="10.15" duration="196.00" routeLength="995.90" waitingTime="83.00" waitingCount="2" stopTime="0.00" timeLoss="126.42" rerouteNo="0" devices="tripinfo_EW_165" vType="car" speedFactor="1.02" vaporized=""/>
    <tripinfo id="EW_201" depart="201.00" departLane="4i_0" departPos="4.10" departSpeed="0.00" departDelay="0.00" arrival="363.00" arrivalLane="3o_0" arrivalPos="492.80" arrivalSpeed="11.22" duration="162.00" routeLength="995.90" waitingTime="46.00" waitingCount="1" stopTime="0.00" timeLoss="92.88" rerouteNo="0" devices="tripinfo_EW_201" vType="car" speedFactor="1.03" vaporized=""/>
    <tripinfo id="EW_215" depart="215.00" departLane="4i_0" departPos="4.10" departSpeed="0.00" departDelay="0.00" arrival="364.00" arrivalLane="1o_0" arrivalPos="492.80" arrivalSpeed="10.39" duration="149.00" routeLength="990.53" waitingTime="34.00" waitingCount="1" stopTime="0.00" timeLoss="78.74" rerouteNo="0" devices="tripinfo_EW_215" vType="car" speedFactor="1.00" vaporized=""/>