<?xml version="1.0" encoding="UTF-8"?>

<!-- generated on 2024-05-05 22:18:08 by Eclipse SUMO sumo Version 1.19.0
<configuration xmlns:xsi="http://www.w3.org/2001/XMLSchema-instance" xsi:noNamespaceSchemaLocation="http://sumo.dlr.de/xsd/sumoConfiguration.xsd">

    <input>
        <net-file value="twoone.net.xml"/>
        <route-files value="route_gen.rou.xml"/>
    </input>

    <output>
        <tripinfo-output value="tripinfo_epi253.xml"/>
    </output>

    <report>
        <no-warnings value="true"/>
    </report>

    <traci_server>
        <remote-port value="37921"/>
    </traci_server>

</configuration>
-->

<tripinfos xmlns:xsi="http://www.w3.org/2001/XMLSchema-instance" xsi:noNamespaceSchemaLocation="http://sumo.dlr.de/xsd/tripinfo_file.xsd">
    <tripinfo id="WE_5" depart="5.00" departLane="1i_0" departPos="4.10" departSpeed="0.00" departDelay="0.00" arrival="83.00" arrivalLane="2o_0" arrivalPos="492.80" arrivalSpeed="10.30" duration="78.00" routeLength="995.90" waitingTime="0.00" waitingCount="0" stopTime="0.00" timeLoss="7.15" rerouteNo="0" devices="tripinfo_WE_5" vType="car" speedFactor="1.01" vaporized=""/>
    <tripinfo id="SN_2" depart="2.00" departLane="3i_0" departPos="4.10" departSpeed="0.00" departDelay="0.00" arrival="84.00" arrivalLane="4o_0" arrivalPos="492.80" arrivalSpeed="11.04" duration="82.00" routeLength="995.90" waitingTime="1.00" waitingCount="1" stopTime="0.00" timeLoss="14.69" rerouteNo="0" devices="tripinfo_SN_2" vType="car" speedFactor="1.06" vaporized=""/>
    <tripinfo id="NS_3" depart="3.00" departLane="2i_0" departPos="4.10" departSpeed="0.00" departDelay="0.00" arrival="87.00" arrivalLane="1o_0" arrivalPos="492.80" arrivalSpeed="9.89" duration="84.00" routeLength="995.90" waitingTime="0.00" waitingCount="0" stopTime="0.00" timeLoss="8.22" rerouteNo="0" devices="tripinfo_NS_3" vType="car" speedFactor="0.94" vaporized=""/>
    <tripinfo id="WE_10" depart="10.00" departLane="1i_0" departPos="10.10" departSpeed="0.00" departDelay="0.00" arrival="90.00" arrivalLane="3o_0" arrivalPos="492.80" arrivalSpeed="11.40" duration="80.00" routeLength="984.53" waitingTime="0.00" waitingCount="0" stopTime="0.00" timeLoss="11.48" rerouteNo="0" devices="tripinfo_WE_10" vType="truck" speedFactor="1.04" vaporized=""/>
    <tripinfo id="EW_18" depart="18.00" departLane="4i_0" departPos="4.10" departSpeed="0.00" departDelay="0.00" arrival="95.00" arrivalLane="3o_0" arrivalPos="492.80" arrivalSpeed="10.54" duration="77.00" routeLength="995.90" waitingTime="0.00" waitingCount="0" stopTime="0.00" timeLoss="9.01" rerouteNo="0" devices="tripinfo_EW_18" vType="car" speedFactor="1.05" vaporized=""/>
    <tripinfo id="SN_14" depart="14.00" departLane="3i_0" departPos="4.10" departSpeed="0.00" departDelay="0.00" arrival="100.00" arrivalLane="1o_0" arrivalPos="492.80" arrivalSpeed="11.05" duration="86.00" routeLength="995.70" waitingTime="0.00" waitingCount="0" stopTime="0.00" timeLoss="17.47" rerouteNo="0" devices="tripinfo_SN_14" vType="car" speedFactor="1.03" vaporized=""/>
    <tripinfo id="NS_24" depart="24.00" departLane="2i_0" departPos="4.10" departSpeed="0.00" departDelay="0.00" arrival="109.00" arrivalLane="4o_0" arrivalPos="492.80" arrivalSpeed="12.09" duration="85.00" routeLength="990.53" waitingTime="1.00" waitingCount="1" stopTime="0.00" timeLoss="20.23" rerouteNo="0" devices="tripinfo_NS_24" vType="car" speedFactor="1.09" vaporized=""/>
    <tripinfo id="NS_31" depart="31.00" departLane="2i_0" departPos="4.10" departSpeed="0.00" departDelay="0.00" arrival="114.00" arrivalLane="4o_0" arrivalPos="492.80" arrivalSpeed="11.13" duration="83.00" routeLength="990.53" waitingTime="0.00" waitingCount="0" stopTime="0.00" timeLoss="14.16" rerouteNo="0" devices="tripinfo_NS_31" vType="car" speedFactor="1.03" vaporized=""/>
    <tripinfo id="NS_32" depart="34.00" departLane="2i_0" departPos="4.10" departSpeed="0.00" departDelay="2.00" arrival="115.00" arrivalLane="1o_0" arrivalPos="492.80" arrivalSpeed="11.17" duration="81.00" routeLength="995.90" waitingTime="0.00" waitingCount="0" stopTime="0.00" timeLoss="13.57" rerouteNo="0" devices="tripinfo_NS_32" vType="car" speedFactor="1.05" vaporized=""/>
    <tripinfo id="NS_16" depart="16.00" departLane="2i_0" departPos="10.10" departSpeed="0.00" departDelay="0.00" arrival="116.00" arrivalLane="3o_0" arrivalPos="492.80" arrivalSpeed="10.14" duration="100.00" routeLength="989.70" waitingTime="3.00" waitingCount="1" stopTime="0.00" timeLoss="22.41" rerouteNo="0" devices="tripinfo_NS_16" vType="truck" speedFactor="0.92" vaporized=""/>
    <tripinfo id="NS_52" depart="52.00" departLane="2i_0" departPos="4.10" departSpeed="0.00" departDelay="0.00" arrival="121.00" arrivalLane="4o_0" arrivalPos="492.80" arrivalSpeed="12.54" duration="69.00" routeLength="990.53" waitingTime="0.00" waitingCount="0" stopTime="0.00" timeLoss="7.90" rerouteNo="0" devices="tripinfo_NS_52" vType="car" speedFactor="1.16" vaporized=""/>
    <tripinfo id="WE_21" depart="21.00" departLane="1i_0" departPos="4.10" departSpeed="0.00" departDelay="0.00" arrival="135.00" arrivalLane="4o_0" arrivalPos="492.80" arrivalSpeed="9.57" duration="114.00" routeLength="995.70" waitingTime="25.00" waitingCount="1" stopTime="0.00" timeLoss="38.25" rerouteNo="0" devices="tripinfo_WE_21" vType="car" speedFactor="0.94" vaporized=""/>
    <tripinfo id="NS_54" depart="55.00" departLane="2i_0" departPos="4.10" departSpeed="0.00" departDelay="1.00" arrival="135.00" arrivalLane="1o_0" arrivalPos="492.80" arrivalSpeed="10.89" duration="80.00" routeLength="995.90" waitingTime="0.00" waitingCount="0" stopTime="0.00" timeLoss="10.36" rerouteNo="0" devices="tripinfo_NS_54" vType="car" speedFactor="1.02" vaporized=""/>
    <tripinfo id="EW_19" depart="21.00" departLane="4i_0" departPos="4.10" departSpeed="0.00" departDelay="2.00" arrival="141.00" arrivalLane="3o_0" arrivalPos="492.80" arrivalSpeed="8.85" duration="120.00" routeLength="995.90" waitingTime="26.00" waitingCount="1" stopTime="0.00" timeLoss="39.84" rerouteNo="0" devices="tripinfo_EW_19" vType="car" speedFactor="0.89" vaporized=""/>
    <tripinfo id="SN_40" depart="40.00" departLane="3i_0" departPos="4.10" departSpeed="0.00" departDelay="0.00" arrival="141.00" arrivalLane="4o_0" arrivalPos="492.80" arrivalSpeed="9.10" duration="101.00" routeLength="995.90" waitingTime="7.00" waitingCount="1" stopTime="0.00" timeLoss="20.32" rerouteNo="0" devices="tripinfo_SN_40" vType="car" speedFactor="0.88" vaporized=""/>
    <tripinfo id="WE_36" depart="36.00" departLane="1i_0" departPos="4.10" departSpeed="0.00" departDelay="0.00" arrival="144.00" arrivalLane="4o_0" arrivalPos="492.80" arrivalSpeed="10.40" duration="108.00" routeLength="995.70" waitingTime="14.00" waitingCount="1" stopTime="0.00" timeLoss="36.78" rerouteNo="0" devices="tripinfo_WE_36" vType="car" speedFactor="0.99" vaporized=""/>
    <tripinfo id="EW_37" depart="37.00" departLane="4i_0" departPos="4.10" departSpeed="0.00" departDelay="0.00" arrival="145.00" arrivalLane="1o_0" arrivalPos="492.80" arrivalSpeed="9.93" duration="108.00" routeLength="990.53" waitingTime="14.00" waitingCount="1" stopTime="0.00" timeLoss="31.49" rerouteNo="0" devices="tripinfo_EW_37" vType="car" speedFactor="0.93" vaporized=""/>
    <tripinfo id="WE_23" depart="24.00" departLane="1i_0" departPos="4.10" departSpeed="0.00" departDelay="1.00" arrival="146.00" arrivalLane="2o_0" arrivalPos="492.80" arrivalSpeed="8.69" duration="122.00" routeLength="995.90" waitingTime="21.00" waitingCount="1" stopTime="0.00" timeLoss="39.15" rerouteNo="0" devices="tripinfo_WE_23" vType="car" speedFactor="0.86" vaporized=""/>
    <tripinfo id="WE_56" depart="56.00" departLane="1i_0" departPos="4.10" departSpeed="0.00" departDelay="0.00" arrival="146.00" arrivalLane="3o_0" arrivalPos="492.80" arrivalSpeed="10.36" duration="90.00" routeLength="990.53" waitingTime="0.00" waitingCount="0" stopTime="0.00" timeLoss="19.82" rerouteNo="0" devices="tripinfo_WE_56" vType="car" speedFactor="1.01" vaporized=""/>
    <tripinfo id="EW_33" depart="33.00" departLane="4i_0" departPos="4.10" departSpeed="0.00" departDelay="0.00" arrival="148.00" arrivalLane="2o_0" arrivalPos="492.80" arrivalSpeed="11.59" duration="115.00" routeLength="995.70" waitingTime="19.00" waitingCount="1" stopTime="0.00" timeLoss="51.35" rerouteNo="0" devices="tripinfo_EW_33" vType="car" speedFactor="1.12" vaporized=""/>
    <tripinfo id="SN_46" depart="46.00" departLane="3i_0" departPos="4.10" departSpeed="0.00" departDelay="0.00" arrival="149.00" arrivalLane="4o_0" arrivalPos="492.80" arrivalSpeed="10.34" duration="103.00" routeLength="995.90" waitingTime="10.00" waitingCount="3" stopTime="0.00" timeLoss="27.38" rerouteNo="0" devices="tripinfo_SN_46" vType="car" speedFactor="0.94" vaporized=""/>
    <tripinfo id="EW_58" depart="58.00" departLane="4i_0" departPos="4.10" departSpeed="0.00" departDelay="0.00" arrival="150.00" arrivalLane="2o_0" arrivalPos="492.80" arrivalSpeed="10.14" duration="92.00" routeLength="995.70" waitingTime="2.00" waitingCount="1" stopTime="0.00" timeLoss="19.33" rerouteNo="0" devices="tripinfo_EW_58" vType="car" speedFactor="0.97" vaporized=""/>
    <tripinfo id="SN_48" depart="48.00" departLane="3i_0" departPos="4.10" departSpeed="0.00" departDelay="0.00" arrival="154.00" arrivalLane="1o_0" arrivalPos="492.80" arrivalSpeed="9.56" duration="106.00" routeLength="995.70" waitingTime="8.00" waitingCount="2" stopTime="0.00" timeLoss="29.93" rerouteNo="0" devices="tripinfo_SN_48" vType="car" speedFactor="0.94" vaporized=""/>
    <tripinfo id="WE_67" depart="67.00" departLane="1i_0" departPos="4.10" departSpeed="0.00" departDelay="0.00" arrival="157.00" arrivalLane="3o_0" arrivalPos="492.80" arrivalSpeed="9.54" duration="90.00" routeLength="990.53" waitingTime="0.00" waitingCount="0" stopTime="0.00" timeLoss="9.11" rerouteNo="0" devices="tripinfo_WE_67" vType="car" speedFactor="0.87" vaporized=""/>
    <tripinfo id="NS_71" depart="71.00" departLane="2i_0" departPos="4.10" departSpeed="0.00" departDelay="0.00" arrival="158.00" arrivalLane="1o_0" arrivalPos="492.80" arrivalSpeed="8.95" duration="87.00" routeLength="995.90" waitingTime="0.00" waitingCount="0" stopTime="0.00" timeLoss="9.36" rerouteNo="0" devices="tripinfo_NS_71" vType="car" speedFactor="0.92" vaporized=""/>
    <tripinfo id="SN_66" depart="66.00" departLane="3i_0" departPos="4.10" departSpeed="0.00" departDelay="0.00" arrival="162.00" arrivalLane="4o_0" arrivalPos="492.80" arrivalSpeed="8.33" duration="96.00" routeLength="995.90" waitingTime="0.00" waitingCount="0" stopTime="0.00" timeLoss="10.27" rerouteNo="0" devices="tripinfo_SN_66" vType="car" speedFactor="0.83" vaporized=""/>
    <tripinfo id="EW_65" depart="65.00" departLane="4i_0" departPos="4.10" departSpeed="0.00" departDelay="0.00" arrival="163.00" arrivalLane="2o_0" arrivalPos="492.80" arrivalSpeed="8.93" duration="98.00" routeLength="995.70" waitingTime="0.00" waitingCount="0" stopTime="0.00" timeLoss="18.39" rerouteNo="0" devices="tripinfo_EW_65" vType="car" speedFactor="0.89" vaporized=""/>
    <tripinfo id="WE_82" depart="82.00" departLane="1i_0" departPos="4.10" departSpeed="0.00" departDelay="0.00" arrival="164.00" arrivalLane="4o_0" arrivalPos="492.80" arrivalSpeed="11.09" duration="82.00" routeLength="995.70" waitingTime="0.00" waitingCount="0" stopTime="0.00" timeLoss="18.98" rerouteNo="0" devices="tripinfo_WE_82" vType="car" speedFactor="1.13" vaporized=""/>
    <tripinfo id="NS_93" depart="93.00" departLane="2i_0" departPos="4.10" departSpeed="0.00" departDelay="0.00" arrival="166.00" arrivalLane="4o_0" arrivalPos="492.80" arrivalSpeed="12.77" duration="73.00" routeLength="990.53" waitingTime="0.00" waitingCount="0" stopTime="0.00" timeLoss="12.13" rerouteNo="0" devices="tripinfo_NS_93" vType="car" speedFactor="1.17" vaporized=""/>
    <tripinfo id="SN_80" depart="80.00" departLane="3i_0" departPos="4.10" departSpeed="0.00" departDelay="0.00" arrival="169.00" arrivalLane="1o_0" arrivalPos="492.80" arrivalSpeed="9.97" duration="89.00" routeLength="995.70" waitingTime="2.00" waitingCount="1" stopTime="0.00" timeLoss="13.96" rerouteNo="0" devices="tripinfo_SN_80" vType="car" speedFactor="0.95" vaporized=""/>
    <tripinfo id="NS_90" depart="90.00" departLane="2i_0" departPos="4.10" departSpeed="0.00" departDelay="0.00" arrival="170.00" arrivalLane="1o_0" arrivalPos="492.80" arrivalSpeed="11.10" duration="80.00" routeLength="995.90" waitingTime="0.00" waitingCount="0" stopTime="0.00" timeLoss="20.17" rerouteNo="0" devices="tripinfo_NS_90" vType="car" speedFactor="1.18" vaporized=""/>
    <tripinfo id="SN_92" depart="92.00" departLane="3i_0" departPos="4.10" departSpeed="0.00" departDelay="0.00" arrival="172.00" arrivalLane="1o_0" arrivalPos="492.80" arrivalSpeed="11.84" duration="80.00" routeLength="995.70" waitingTime="2.00" waitingCount="2" stopTime="0.00" timeLoss="18.58" rerouteNo="0" devices="tripinfo_SN_92" vType="car" speedFactor="1.15" vaporized=""/>
    <tripinfo id="NS_84" depart="84.00" departLane="2i_0" departPos="4.10" departSpeed="0.00" departDelay="0.00" arrival="173.00" arrivalLane="3o_0" arrivalPos="492.80" arrivalSpeed="9.45" duration="89.00" routeLength="995.70" waitingTime="0.00" waitingCount="0" stopTime="0.00" timeLoss="13.03" rerouteNo="0" devices="tripinfo_NS_84" vType="car" speedFactor="0.93" vaporized=""/>
    <tripinfo id="WE_93" depart="93.00" departLane="1i_0" departPos="4.10" departSpeed="0.00" departDelay="0.00" arrival="174.00" arrivalLane="4o_0" arrivalPos="492.80" arrivalSpeed="10.02" duration="81.00" routeLength="995.70" waitingTime="0.00" waitingCount="0" stopTime="0.00" timeLoss="10.05" rerouteNo="0" devices="tripinfo_WE_93" vType="car" speedFactor="1.01" vaporized=""/>
    <tripinfo id="NS_108" depart="108.00" departLane="2i_0" departPos="4.10" departSpeed="0.00" departDelay="0.00" arrival="179.00" arrivalLane="1o_0" arrivalPos="492.80" arrivalSpeed="12.41" duration="71.00" routeLength="995.90" waitingTime="0.00" waitingCount="0" stopTime="0.00" timeLoss="10.55" rerouteNo="0" devices="tripinfo_NS_108" vType="car" speedFactor="1.18" vaporized=""/>
    <tripinfo id="SN_98" depart="98.00" departLane="3i_0" departPos="4.10" departSpeed="0.00" departDelay="0.00" arrival="185.00" arrivalLane="4o_0" arrivalPos="492.80" arrivalSpeed="10.78" duration="87.00" routeLength="995.90" waitingTime="1.00" waitingCount="1" stopTime="0.00" timeLoss="15.66" rerouteNo="0" devices="tripinfo_SN_98" vType="car" speedFactor="0.99" vaporized=""/>
    <tripinfo id="WE_110" depart="110.00" departLane="1i_0" departPos="4.10" departSpeed="0.00" departDelay="0.00" arrival="186.00" arrivalLane="2o_0" arrivalPos="492.80" arrivalSpeed="11.52" duration="76.00" routeLength="995.90" waitingTime="1.00" waitingCount="1" stopTime="0.00" timeLoss="11.07" rerouteNo="0" devices="tripinfo_WE_110" vType="car" speedFactor="1.10" vaporized=""/>
    <tripinfo id="SN_100" depart="102.00" departLane="3i_0" departPos="10.10" departSpeed="0.00" departDelay="2.00" arrival="194.00" arrivalLane="1o_0" arrivalPos="492.80" arrivalSpeed="10.81" duration="92.00" routeLength="989.70" waitingTime="1.00" waitingCount="1" stopTime="0.00" timeLoss="22.39" rerouteNo="0" devices="tripinfo_SN_100" vType="truck" speedFactor="1.01" vaporized=""/>
    <tripinfo id="EW_107" depart="109.00" departLane="4i_0" departPos="4.10" departSpeed="0.00" departDelay="2.00" arrival="194.00" arrivalLane="2o_0" arrivalPos="492.80" arrivalSpeed="10.66" duration="85.00" routeLength="995.70" waitingTime="0.00" waitingCount="0" stopTime="0.00" timeLoss="12.45" rerouteNo="0" devices="tripinfo_EW_107" vType="car" speedFactor="0.97" vaporized=""/>
    <tripinfo id="NS_114" depart="114.00" departLane="2i_0" departPos="4.10" departSpeed="0.00" departDelay="0.00" arrival="201.00" arrivalLane="1o_0" arrivalPos="492.80" arrivalSpeed="9.50" duration="87.00" routeLength="995.90" waitingTime="0.00" waitingCount="0" stopTime="0.00" timeLoss="12.58" rerouteNo="0" devices="tripinfo_NS_114" vType="car" speedFactor="0.96" vaporized=""/>
    <tripinfo id="WE_122" depart="122.00" departLane="1i_0" departPos="4.10" departSpeed="0.00" departDelay="0.00" arrival="205.00" arrivalLane="3o_0" arrivalPos="492.80" arrivalSpeed="11.01" duration="83.00" routeLength="990.53" waitingTime="4.00" waitingCount="1" stopTime="0.00" timeLoss="18.29" rerouteNo="0" devices="tripinfo_WE_122" vType="car" speedFactor="1.09" vaporized=""/>
    <tripinfo id="NS_123" depart="123.00" departLane="2i_0" departPos="4.10" departSpeed="0.00" departDelay="0.00" arrival="205.00" arrivalLane="4o_0" arrivalPos="492.80" arrivalSpeed="10.30" duration="82.00" routeLength="990.53" waitingTime="0.00" waitingCount="0" stopTime="0.00" timeLoss="10.68" rerouteNo="0" devices="tripinfo_NS_123" vType="car" speedFactor="1.00" vaporized=""/>
    <tripinfo id="SN_111" depart="111.00" departLane="3i_0" departPos="4.10" departSpeed="0.00" departDelay="0.00" arrival="206.00" arrivalLane="1o_0" arrivalPos="492.80" arrivalSpeed="9.04" duration="95.00" routeLength="995.70" waitingTime="0.00" waitingCount="0" stopTime="0.00" timeLoss="16.62" rerouteNo="0" devices="tripinfo_SN_111" vType="car" speedFactor="0.90" vaporized=""/>
    <tripinfo id="WE_118" depart="118.00" departLane="1i_0" departPos="4.10" departSpeed="0.00" departDelay="0.00" arrival="206.00" arrivalLane="4o_0" arrivalPos="492.80" arrivalSpeed="10.68" duration="88.00" routeLength="995.70" waitingTime="5.00" waitingCount="1" stopTime="0.00" timeLoss="19.87" rerouteNo="0" devices="tripinfo_WE_118" vType="car" speedFactor="1.04" vaporized=""/>
    <tripinfo id="NS_120" depart="120.00" departLane="2i_0" departPos="4.10" departSpeed="0.00" departDelay="0.00" arrival="208.00" arrivalLane="1o_0" arrivalPos="492.80" arrivalSpeed="10.79" duration="88.00" routeLength="995.90" waitingTime="0.00" waitingCount="0" stopTime="0.00" timeLoss="20.17" rerouteNo="0" devices="tripinfo_NS_120" vType="car" speedFactor="1.04" vaporized=""/>
    <tripinfo id="WE_128" depart="128.00" departLane="1i_0" departPos="4.10" departSpeed="0.00" departDelay="0.00" arrival="217.00" arrivalLane="2o_0" arrivalPos="492.80" arrivalSpeed="8.95" duration="89.00" routeLength="995.90" waitingTime="0.00" waitingCount="0" stopTime="0.00" timeLoss="10.00" rerouteNo="0" devices="tripinfo_WE_128" vType="car" speedFactor="0.90" vaporized=""/>
    <tripinfo id="NS_128" depart="128.00" departLane="2i_0" departPos="4.10" departSpeed="0.00" departDelay="0.00" arrival="218.00" arrivalLane="1o_0" arrivalPos="492.80" arrivalSpeed="9.05" duration="90.00" routeLength="995.90" waitingTime="0.00" waitingCount="0" stopTime="0.00" timeLoss="8.82" rerouteNo="0" devices="tripinfo_NS_128" vType="car" speedFactor="0.88" vaporized=""/>
    <tripinfo id="NS_129" depart="132.00" departLane="2i_0" departPos="10.10" departSpeed="0.00" departDelay="3.00" arrival="220.00" arrivalLane="1o_0" arrivalPos="492.80" arrivalSpeed="9.86" duration="88.00" routeLength="989.90" waitingTime="0.00" waitingCount="0" stopTime="0.00" timeLoss="11.93" rerouteNo="0" devices="tripinfo_NS_129" vType="truck" speedFactor="0.93" vaporized=""/>
    <tripinfo id="WE_140" depart="140.00" departLane="1i_0" departPos="4.10" departSpeed="0.00" departDelay="0.00" arrival="222.00" arrivalLane="4o_0" arrivalPos="492.80" arrivalSpeed="11.74" duration="82.00" routeLength="995.70" waitingTime="4.00" waitingCount="1" stopTime="0.00" timeLoss="19.77" rerouteNo="0" devices="tripinfo_WE_140" vType="car" speedFactor="1.14" vaporized=""/>
    <tripinfo id="SN_113" depart="116.00" departLane="3i_0" departPos="4.10" departSpeed="0.00" departDelay="3.00" arrival="223.00" arrivalLane="1o_0" arrivalPos="492.80" arrivalSpeed="10.29" duration="107.00" routeLength="995.70" waitingTime="17.00" waitingCount="1" stopTime="0.00" timeLoss="37.83" rerouteNo="0" devices="tripinfo_SN_113" vType="car" speedFactor="1.03" vaporized=""/>
    <tripinfo id="WE_131" depart="131.00" departLane="1i_0" departPos="4.10" departSpeed="0.00" departDelay="0.00" arrival="223.00" arrivalLane="3o_0" arrivalPos="492.80" arrivalSpeed="8.31" duration="92.00" routeLength="990.53" waitingTime="0.00" waitingCount="0" stopTime="0.00" timeLoss="9.11" rerouteNo="0" devices="tripinfo_WE_131" vType="car" speedFactor="0.85" vaporized=""/>
    <tripinfo id="NS_136" depart="136.00" departLane="2i_0" departPos="4.10" departSpeed="0.00" departDelay="0.00" arrival="225.00" arrivalLane="3o_0" arrivalPos="492.80" arrivalSpeed="9.83" duration="89.00" routeLength="995.70" waitingTime="0.00" waitingCount="0" stopTime="0.00" timeLoss="17.19" rerouteNo="0" devices="tripinfo_NS_136" vType="car" speedFactor="1.00" vaporized=""/>
    <tripinfo id="NS_144" depart="144.00" departLane="2i_0" departPos="4.10" departSpeed="0.00" departDelay="0.00" arrival="226.00" arrivalLane="1o_0" arrivalPos="492.80" arrivalSpeed="9.84" duration="82.00" routeLength="995.90" waitingTime="0.00" waitingCount="0" stopTime="0.00" timeLoss="8.69" rerouteNo="0" devices="tripinfo_NS_144" vType="car" speedFactor="0.97" vaporized=""/>
    <tripinfo id="WE_146" depart="147.00" departLane="1i_0" departPos="4.10" departSpeed="0.00" departDelay="1.00" arrival="227.00" arrivalLane="2o_0" arrivalPos="492.80" arrivalSpeed="11.08" duration="80.00" routeLength="995.90" waitingTime="0.00" waitingCount="0" stopTime="0.00" timeLoss="14.57" rerouteNo="0" devices="tripinfo_WE_146" vType="car" speedFactor="1.08" vaporized=""/>
    <tripinfo id="WE_144" depart="145.00" departLane="1i_0" departPos="4.10" departSpeed="0.00" departDelay="1.00" arrival="229.00" arrivalLane="4o_0" arrivalPos="492.80" arrivalSpeed="10.33" duration="84.00" routeLength="995.70" waitingTime="0.00" waitingCount="0" stopTime="0.00" timeLoss="14.29" rerouteNo="0" devices="tripinfo_WE_144" vType="car" speedFactor="1.02" vaporized=""/>
    <tripinfo id="EW_117" depart="117.00" departLane="4i_0" departPos="4.10" departSpeed="0.00" departDelay="0.00" arrival="231.00" arrivalLane="1o_0" arrivalPos="492.80" arrivalSpeed="11.16" duration="114.00" routeLength="990.53" waitingTime="34.00" waitingCount="2" stopTime="0.00" timeLoss="49.04" rerouteNo="0" devices="tripinfo_EW_117" vType="car" speedFactor="1.09" vaporized=""/>
    <tripinfo id="WE_147" depart="150.00" departLane="1i_0" departPos="4.10" departSpeed="0.00" departDelay="3.00" arrival="232.00" arrivalLane="4o_0" arrivalPos="492.80" arrivalSpeed="10.06" duration="82.00" routeLength="995.70" waitingTime="0.00" waitingCount="0" stopTime="0.00" timeLoss="12.42" rerouteNo="0" devices="tripinfo_WE_147" vType="car" speedFactor="1.02" vaporized=""/>
    <tripinfo id="SN_132" depart="132.00" departLane="3i_0" departPos="4.10" departSpeed="0.00" departDelay="0.00" arrival="233.00" arrivalLane="1o_0" arrivalPos="492.80" arrivalSpeed="10.98" duration="101.00" routeLength="995.70" waitingTime="17.00" waitingCount="2" stopTime="0.00" timeLoss="36.14" rerouteNo="0" devices="tripinfo_SN_132" vType="car" speedFactor="1.10" vaporized=""/>
    <tripinfo id="WE_148" depart="154.00" departLane="1i_0" departPos="4.10" departSpeed="0.00" departDelay="6.00" arrival="236.00" arrivalLane="3o_0" arrivalPos="492.80" arrivalSpeed="10.71" duration="82.00" routeLength="990.53" waitingTime="0.00" waitingCount="0" stopTime="0.00" timeLoss="10.04" rerouteNo="0" devices="tripinfo_WE_148" vType="car" speedFactor="0.99" vaporized=""/>
    <tripinfo id="EW_131" depart="131.00" departLane="4i_0" departPos="4.10" departSpeed="0.00" departDelay="0.00" arrival="237.00" arrivalLane="3o_0" arrivalPos="492.80" arrivalSpeed="11.52" duration="106.00" routeLength="995.90" waitingTime="23.00" waitingCount="2" stopTime="0.00" timeLoss="45.48" rerouteNo="0" devices="tripinfo_EW_131" vType="car" speedFactor="1.17" vaporized=""/>
    <tripinfo id="SN_134" depart="135.00" departLane="3i_0" departPos="4.10" departSpeed="0.00" departDelay="1.00" arrival="239.00" arrivalLane="2o_0" arrivalPos="492.80" arrivalSpeed="10.57" duration="104.00" routeLength="990.53" waitingTime="12.00" waitingCount="2" stopTime="0.00" timeLoss="33.92" rerouteNo="0" devices="tripinfo_SN_134" vType="car" speedFactor="1.00" vaporized=""/>
    <tripinfo id="EW_132" depart="135.00" departLane="4i_0" departPos="4.10" departSpeed="0.00" departDelay="3.00" arrival="246.00" arrivalLane="3o_0" arrivalPos="492.80" arrivalSpeed="10.03" duration="111.00" routeLength="995.90" waitingTime="18.00" waitingCount="3" stopTime="0.00" timeLoss="41.55" rerouteNo="0" devices="tripinfo_EW_132" vType="car" speedFactor="1.02" vaporized=""/>
    <tripinfo id="EW_146" depart="146.00" departLane="4i_0" departPos="10.10" departSpeed="0.00" departDelay="0.00" arrival="248.00" arrivalLane="1o_0" arrivalPos="492.80" arrivalSpeed="11.23" duration="102.00" routeLength="984.53" waitingTime="2.00" waitingCount="2" stopTime="0.00" timeLoss="34.88" rerouteNo="0" devices="tripinfo_EW_146" vType="truck" speedFactor="1.06" vaporized=""/>
    <tripinfo id="WE_157" depart="158.00" departLane="1i_0" departPos="4.10" departSpeed="0.00" departDelay="1.00" arrival="249.00" arrivalLane="4o_0" arrivalPos="492.80" arrivalSpeed="9.35" duration="91.00" routeLength="995.70" waitingTime="0.00" waitingCount="0" stopTime="0.00" timeLoss="10.64" rerouteNo="0" devices="tripinfo_WE_157" vType="car" speedFactor="0.88" vaporized=""/>
    <tripinfo id="SN_136" depart="138.00" departLane="3i_0" departPos="4.10" departSpeed="0.00" departDelay="2.00" arrival="253.00" arrivalLane="4o_0" arrivalPos="492.80" arrivalSpeed="9.21" duration="115.00" routeLength="995.90" waitingTime="9.00" waitingCount="4" stopTime="0.00" timeLoss="36.32" rerouteNo="0" devices="tripinfo_SN_136" vType="car" speedFactor="0.90" vaporized=""/>
    <tripinfo id="SN_148" depart="148.00" departLane="3i_0" departPos="4.10" departSpeed="0.00" departDelay="0.00" arrival="254.00" arrivalLane="2o_0" arrivalPos="492.80" arrivalSpeed="9.24" duration="106.00" routeLength="990.53" waitingTime="5.00" waitingCount="2" stopTime="0.00" timeLoss="30.92" rerouteNo="0" devices="tripinfo_SN_148" vType="car" speedFactor="0.94" vaporized=""/>
    <tripinfo id="WE_170" depart="170.00" departLane="1i_0" departPos="4.10" departSpeed="0.00" departDelay="0.00" arrival="255.00" arrivalLane="3o_0" arrivalPos="492.80" arrivalSpeed="9.66" duration="85.00" routeLength="990.53" waitingTime="0.00" waitingCount="0" stopTime="0.00" timeLoss="8.24" rerouteNo="0" devices="tripinfo_WE_170" vType="car" speedFactor="0.91" vaporized=""/>
    <tripinfo id="WE_172" depart="173.00" departLane="1i_0" departPos="4.10" departSpeed="0.00" departDelay="1.00" arrival="257.00" arrivalLane="3o_0" arrivalPos="492.80" arrivalSpeed="11.26" duration="84.00" routeLength="990.53" waitingTime="0.00" waitingCount="0" stopTime="0.00" timeLoss="16.21" rerouteNo="0" devices="tripinfo_WE_172" vType="car" speedFactor="1.04" vaporized=""/>
    <tripinfo id="WE_174" depart="176.00" departLane="1i_0" departPos="4.10" departSpeed="0.00" departDelay="2.00" arrival="265.00" arrivalLane="4o_0" arrivalPos="492.80" arrivalSpeed="11.27" duration="89.00" routeLength="995.70" waitingTime="6.00" waitingCount="1" stopTime="0.00" timeLoss="19.83" rerouteNo="0" devices="tripinfo_WE_174" vType="car" speedFactor="1.02" vaporized=""/>
    <tripinfo id="NS_176" depart="176.00" departLane="2i_0" departPos="4.10" departSpeed="0.00" departDelay="0.00" arrival="268.00" arrivalLane="3o_0" arrivalPos="492.80" arrivalSpeed="10.01" duration="92.00" routeLength="995.70" waitingTime="6.00" waitingCount="1" stopTime="0.00" timeLoss="18.81" rerouteNo="0" devices="tripinfo_NS_176" vType="car" speedFactor="0.97" vaporized=""/>
    <tripinfo id="SN_177" depart="177.00" departLane="3i_0" departPos="4.10" departSpeed="0.00" departDelay="0.00" arrival="269.00" arrivalLane="4o_0" arrivalPos="492.80" arrivalSpeed="10.90" duration="92.00" routeLength="995.90" waitingTime="10.00" waitingCount="2" stopTime="0.00" timeLoss="24.40" rerouteNo="0" devices="tripinfo_SN_177" vType="car" speedFactor="1.06" vaporized=""/>
    <tripinfo id="WE_175" depart="179.00" departLane="1i_0" departPos="4.10" departSpeed="0.00" departDelay="4.00" arrival="270.00" arrivalLane="3o_0" arrivalPos="492.80" arrivalSpeed="10.47" duration="91.00" routeLength="990.53" waitingTime="7.00" waitingCount="2" stopTime="0.00" timeLoss="21.96" rerouteNo="0" devices="tripinfo_WE_175" vType="car" speedFactor="1.02" vaporized=""/>
    <tripinfo id="EW_163" depart="166.00" departLane="4i_0" departPos="4.10" departSpeed="0.00" departDelay="3.00" arrival="271.00" arrivalLane="1o_0" arrivalPos="492.80" arrivalSpeed="9.41" duration="105.00" routeLength="990.53" waitingTime="10.00" waitingCount="1" stopTime="0.00" timeLoss="27.48" rerouteNo="0" devices="tripinfo_EW_163" vType="car" speedFactor="0.91" vaporized=""/>
    <tripinfo id="NS_177" depart="179.00" departLane="2i_0" departPos="4.10" departSpeed="0.00" departDelay="2.00" arrival="273.00" arrivalLane="1o_0" arrivalPos="492.80" arrivalSpeed="10.43" duration="94.00" routeLength="995.90" waitingTime="4.00" waitingCount="1" stopTime="0.00" timeLoss="18.70" rerouteNo="0" devices="tripinfo_NS_177" vType="car" speedFactor="0.94" vaporized=""/>
    <tripinfo id="WE_190" depart="190.00" departLane="1i_0" departPos="10.10" departSpeed="0.00" departDelay="0.00" arrival="273.00" arrivalLane="3o_0" arrivalPos="492.80" arrivalSpeed="10.92" duration="83.00" routeLength="984.53" waitingTime="0.00" waitingCount="0" stopTime="0.00" timeLoss="13.06" rerouteNo="0" devices="tripinfo_WE_190" vType="truck" speedFactor="1.00" vaporized=""/>
    <tripinfo id="EW_186" depart="186.00" departLane="4i_0" departPos="4.10" departSpeed="0.00" departDelay="0.00" arrival="274.00" arrivalLane="2o_0" arrivalPos="492.80" arrivalSpeed="11.09" duration="88.00" routeLength="995.70" waitingTime="1.00" waitingCount="1" stopTime="0.00" timeLoss="19.33" rerouteNo="0" devices="tripinfo_EW_186" vType="car" speedFactor="1.03" vaporized=""/>