<?xml version="1.0" encoding="UTF-8"?>

<!-- generated on 2024-05-05 22:52:44 by Eclipse SUMO sumo Version 1.19.0
<configuration xmlns:xsi="http://www.w3.org/2001/XMLSchema-instance" xsi:noNamespaceSchemaLocation="http://sumo.dlr.de/xsd/sumoConfiguration.xsd">

    <input>
        <net-file value="twoone.net.xml"/>
        <route-files value="route_gen.rou.xml"/>
    </input>

    <output>
        <tripinfo-output value="tripinfo_epi401.xml"/>
    </output>

    <report>
        <no-warnings value="true"/>
    </report>

    <traci_server>
        <remote-port value="40341"/>
    </traci_server>

</configuration>
-->

<tripinfos xmlns:xsi="http://www.w3.org/2001/XMLSchema-instance" xsi:noNamespaceSchemaLocation="http://sumo.dlr.de/xsd/tripinfo_file.xsd">
    <tripinfo id="WE_1" depart="1.00" departLane="1i_0" departPos="4.10" departSpeed="0.00" departDelay="0.00" arrival="75.00" arrivalLane="2o_0" arrivalPos="492.80" arrivalSpeed="11.75" duration="74.00" routeLength="995.90" waitingTime="0.00" waitingCount="0" stopTime="0.00" timeLoss="7.11" rerouteNo="0" devices="tripinfo_WE_1" vType="car" speedFactor="1.06" vaporized=""/>
    <tripinfo id="NS_12" depart="12.00" departLane="2i_0" departPos="4.10" departSpeed="0.00" departDelay="0.00" arrival="86.00" arrivalLane="4o_0" arrivalPos="492.80" arrivalSpeed="11.93" duration="74.00" routeLength="990.53" waitingTime="0.00" waitingCount="0" stopTime="0.00" timeLoss="8.14" rerouteNo="0" devices="tripinfo_NS_12" vType="car" speedFactor="1.08" vaporized=""/>
    <tripinfo id="EW_9" depart="9.00" departLane="4i_0" departPos="4.10" departSpeed="0.00" departDelay="0.00" arrival="88.00" arrivalLane="3o_0" arrivalPos="492.80" arrivalSpeed="10.48" duration="79.00" routeLength="995.90" waitingTime="0.00" waitingCount="0" stopTime="0.00" timeLoss="8.44" rerouteNo="0" devices="tripinfo_EW_9" vType="car" speedFactor="1.01" vaporized=""/>
    <tripinfo id="SN_4" depart="4.00" departLane="3i_0" departPos="4.10" departSpeed="0.00" departDelay="0.00" arrival="93.00" arrivalLane="2o_0" arrivalPos="492.80" arrivalSpeed="9.58" duration="89.00" routeLength="990.53" waitingTime="1.00" waitingCount="1" stopTime="0.00" timeLoss="13.47" rerouteNo="0" devices="tripinfo_SN_4" vType="car" speedFactor="0.94" vaporized=""/>
    <tripinfo id="NS_24" depart="24.00" departLane="2i_0" departPos="4.10" departSpeed="0.00" departDelay="0.00" arrival="103.00" arrivalLane="3o_0" arrivalPos="492.80" arrivalSpeed="10.73" duration="79.00" routeLength="995.70" waitingTime="0.00" waitingCount="0" stopTime="0.00" timeLoss="10.81" rerouteNo="0" devices="tripinfo_NS_24" vType="car" speedFactor="1.05" vaporized=""/>
    <tripinfo id="NS_31" depart="31.00" departLane="2i_0" departPos="4.10" departSpeed="0.00" departDelay="0.00" arrival="106.00" arrivalLane="3o_0" arrivalPos="492.80" arrivalSpeed="11.05" duration="75.00" routeLength="995.70" waitingTime="0.00" waitingCount="0" stopTime="0.00" timeLoss="9.54" rerouteNo="0" devices="tripinfo_NS_31" vType="car" speedFactor="1.09" vaporized=""/>
    <tripinfo id="WE_15" depart="15.00" departLane="1i_0" departPos="10.10" departSpeed="0.00" departDelay="0.00" arrival="109.00" arrivalLane="4o_0" arrivalPos="492.80" arrivalSpeed="11.10" duration="94.00" routeLength="989.70" waitingTime="2.00" waitingCount="1" stopTime="0.00" timeLoss="24.61" rerouteNo="0" devices="tripinfo_WE_15" vType="truck" speedFactor="1.02" vaporized=""/>
    <tripinfo id="NS_18" depart="18.00" departLane="2i_0" departPos="4.10" departSpeed="0.00" departDelay="0.00" arrival="113.00" arrivalLane="1o_0" arrivalPos="492.80" arrivalSpeed="8.52" duration="95.00" routeLength="995.90" waitingTime="0.00" waitingCount="0" stopTime="0.00" timeLoss="9.44" rerouteNo="0" devices="tripinfo_NS_18" vType="car" speedFactor="0.83" vaporized=""/>
    <tripinfo id="WE_25" depart="25.00" departLane="1i_0" departPos="4.10" departSpeed="0.00" departDelay="0.00" arrival="116.00" arrivalLane="4o_0" arrivalPos="492.80" arrivalSpeed="9.26" duration="91.00" routeLength="995.70" waitingTime="0.00" waitingCount="0" stopTime="0.00" timeLoss="15.85" rerouteNo="0" devices="tripinfo_WE_25" vType="car" speedFactor="0.94" vaporized=""/>
    <tripinfo id="NS_38" depart="38.00" departLane="2i_0" departPos="4.10" departSpeed="0.00" departDelay="0.00" arrival="116.00" arrivalLane="1o_0" arrivalPos="492.80" arrivalSpeed="10.24" duration="78.00" routeLength="995.90" waitingTime="0.00" waitingCount="0" stopTime="0.00" timeLoss="8.91" rerouteNo="0" devices="tripinfo_NS_38" vType="car" speedFactor="1.03" vaporized=""/>
    <tripinfo id="SN_24" depart="24.00" departLane="3i_0" departPos="10.10" departSpeed="0.00" departDelay="0.00" arrival="121.00" arrivalLane="2o_0" arrivalPos="492.80" arrivalSpeed="10.18" duration="97.00" routeLength="984.53" waitingTime="3.00" waitingCount="2" stopTime="0.00" timeLoss="22.77" rerouteNo="0" devices="tripinfo_SN_24" vType="truck" speedFactor="0.94" vaporized=""/>
    <tripinfo id="WE_30" depart="30.00" departLane="1i_0" departPos="4.10" departSpeed="0.00" departDelay="0.00" arrival="122.00" arrivalLane="3o_0" arrivalPos="492.80" arrivalSpeed="9.24" duration="92.00" routeLength="990.53" waitingTime="0.00" waitingCount="0" stopTime="0.00" timeLoss="9.63" rerouteNo="0" devices="tripinfo_WE_30" vType="car" speedFactor="0.86" vaporized=""/>
    <tripinfo id="SN_47" depart="47.00" departLane="3i_0" departPos="4.10" departSpeed="0.00" departDelay="0.00" arrival="130.00" arrivalLane="4o_0" arrivalPos="492.80" arrivalSpeed="11.25" duration="83.00" routeLength="995.90" waitingTime="2.00" waitingCount="1" stopTime="0.00" timeLoss="15.37" rerouteNo="0" devices="tripinfo_SN_47" vType="car" speedFactor="1.05" vaporized=""/>
    <tripinfo id="WE_66" depart="66.00" departLane="1i_0" departPos="4.10" departSpeed="0.00" departDelay="0.00" arrival="141.00" arrivalLane="2o_0" arrivalPos="492.80" arrivalSpeed="12.41" duration="75.00" routeLength="995.90" waitingTime="0.00" waitingCount="0" stopTime="0.00" timeLoss="13.92" rerouteNo="0" devices="tripinfo_WE_66" vType="car" speedFactor="1.16" vaporized=""/>
    <tripinfo id="EW_53" depart="53.00" departLane="4i_0" departPos="4.10" departSpeed="0.00" departDelay="0.00" arrival="147.00" arrivalLane="1o_0" arrivalPos="492.80" arrivalSpeed="10.11" duration="94.00" routeLength="990.53" waitingTime="11.00" waitingCount="1" stopTime="0.00" timeLoss="22.93" rerouteNo="0" devices="tripinfo_EW_53" vType="car" speedFactor="0.99" vaporized=""/>
    <tripinfo id="SN_51" depart="51.00" departLane="3i_0" departPos="4.10" departSpeed="0.00" departDelay="0.00" arrival="149.00" arrivalLane="1o_0" arrivalPos="492.80" arrivalSpeed="11.69" duration="98.00" routeLength="995.70" waitingTime="15.00" waitingCount="3" stopTime="0.00" timeLoss="34.53" rerouteNo="0" devices="tripinfo_SN_51" vType="car" speedFactor="1.12" vaporized=""/>
    <tripinfo id="WE_68" depart="68.00" departLane="1i_0" departPos="4.10" departSpeed="0.00" departDelay="0.00" arrival="149.00" arrivalLane="3o_0" arrivalPos="492.80" arrivalSpeed="10.09" duration="81.00" routeLength="990.53" waitingTime="0.00" waitingCount="0" stopTime="0.00" timeLoss="11.06" rerouteNo="0" devices="tripinfo_WE_68" vType="car" speedFactor="1.02" vaporized=""/>
    <tripinfo id="WE_62" depart="62.00" departLane="1i_0" departPos="4.10" departSpeed="0.00" departDelay="0.00" arrival="150.00" arrivalLane="4o_0" arrivalPos="492.80" arrivalSpeed="10.40" duration="88.00" routeLength="995.70" waitingTime="0.00" waitingCount="0" stopTime="0.00" timeLoss="12.39" rerouteNo="0" devices="tripinfo_WE_62" vType="car" speedFactor="0.94" vaporized=""/>
    <tripinfo id="NS_64" depart="64.00" departLane="2i_0" departPos="4.10" departSpeed="0.00" departDelay="0.00" arrival="153.00" arrivalLane="4o_0" arrivalPos="492.80" arrivalSpeed="9.66" duration="89.00" routeLength="990.53" waitingTime="3.00" waitingCount="1" stopTime="0.00" timeLoss="12.99" rerouteNo="0" devices="tripinfo_NS_64" vType="car" speedFactor="0.94" vaporized=""/>
    <tripinfo id="NS_68" depart="68.00" departLane="2i_0" departPos="4.10" departSpeed="0.00" departDelay="0.00" arrival="153.00" arrivalLane="1o_0" arrivalPos="492.80" arrivalSpeed="11.20" duration="85.00" routeLength="995.90" waitingTime="0.00" waitingCount="0" stopTime="0.00" timeLoss="14.83" rerouteNo="0" devices="tripinfo_NS_68" vType="car" speedFactor="1.01" vaporized=""/>
    <tripinfo id="EW_55" depart="56.00" departLane="4i_0" departPos="4.10" departSpeed="0.00" departDelay="1.00" arrival="160.00" arrivalLane="1o_0" arrivalPos="492.80" arrivalSpeed="9.78" duration="104.00" routeLength="990.53" waitingTime="10.00" waitingCount="2" stopTime="0.00" timeLoss="28.12" rerouteNo="0" devices="tripinfo_EW_55" vType="car" speedFactor="0.93" vaporized=""/>
    <tripinfo id="SN_57" depart="57.00" departLane="3i_0" departPos="4.10" departSpeed="0.00" departDelay="0.00" arrival="164.00" arrivalLane="4o_0" arrivalPos="492.80" arrivalSpeed="8.67" duration="107.00" routeLength="995.90" waitingTime="6.00" waitingCount="2" stopTime="0.00" timeLoss="26.13" rerouteNo="0" devices="tripinfo_SN_57" vType="car" speedFactor="0.88" vaporized=""/>
    <tripinfo id="SN_68" depart="68.00" departLane="3i_0" departPos="4.10" departSpeed="0.00" departDelay="0.00" arrival="164.00" arrivalLane="1o_0" arrivalPos="492.80" arrivalSpeed="9.61" duration="96.00" routeLength="995.70" waitingTime="3.00" waitingCount="2" stopTime="0.00" timeLoss="23.23" rerouteNo="0" devices="tripinfo_SN_68" vType="car" speedFactor="0.97" vaporized=""/>
    <tripinfo id="NS_80" depart="80.00" departLane="2i_0" departPos="4.10" departSpeed="0.00" departDelay="0.00" arrival="168.00" arrivalLane="4o_0" arrivalPos="492.80" arrivalSpeed="9.72" duration="88.00" routeLength="990.53" waitingTime="1.00" waitingCount="1" stopTime="0.00" timeLoss="11.04" rerouteNo="0" devices="tripinfo_NS_80" vType="car" speedFactor="0.92" vaporized=""/>
    <tripinfo id="EW_97" depart="97.00" departLane="4i_0" departPos="4.10" departSpeed="0.00" departDelay="0.00" arrival="170.00" arrivalLane="3o_0" arrivalPos="492.80" arrivalSpeed="11.67" duration="73.00" routeLength="995.90" waitingTime="0.00" waitingCount="0" stopTime="0.00" timeLoss="10.24" rerouteNo="0" devices="tripinfo_EW_97" vType="car" speedFactor="1.13" vaporized=""/>
    <tripinfo id="WE_70" depart="72.00" departLane="1i_0" departPos="4.10" departSpeed="0.00" departDelay="2.00" arrival="171.00" arrivalLane="2o_0" arrivalPos="492.80" arrivalSpeed="8.11" duration="99.00" routeLength="995.90" waitingTime="0.00" waitingCount="0" stopTime="0.00" timeLoss="13.06" rerouteNo="0" devices="tripinfo_WE_70" vType="car" speedFactor="0.83" vaporized=""/>
    <tripinfo id="SN_69" depart="70.00" departLane="3i_0" departPos="4.10" departSpeed="0.00" departDelay="1.00" arrival="177.00" arrivalLane="4o_0" arrivalPos="492.80" arrivalSpeed="9.50" duration="107.00" routeLength="995.90" waitingTime="2.00" waitingCount="2" stopTime="0.00" timeLoss="27.00" rerouteNo="0" devices="tripinfo_SN_69" vType="car" speedFactor="0.89" vaporized=""/>
    <tripinfo id="WE_96" depart="96.00" departLane="1i_0" departPos="4.10" departSpeed="0.00" departDelay="0.00" arrival="180.00" arrivalLane="3o_0" arrivalPos="492.80" arrivalSpeed="10.03" duration="84.00" routeLength="990.53" waitingTime="0.00" waitingCount="0" stopTime="0.00" timeLoss="9.72" rerouteNo="0" devices="tripinfo_WE_96" vType="car" speedFactor="0.95" vaporized=""/>
    <tripinfo id="SN_70" depart="74.00" departLane="3i_0" departPos="10.10" departSpeed="0.00" departDelay="4.00" arrival="181.00" arrivalLane="4o_0" arrivalPos="492.80" arrivalSpeed="10.29" duration="107.00" routeLength="989.90" waitingTime="2.00" waitingCount="2" stopTime="0.00" timeLoss="31.75" rerouteNo="0" devices="tripinfo_SN_70" vType="truck" speedFactor="0.94" vaporized=""/>
    <tripinfo id="WE_106" depart="106.00" departLane="1i_0" departPos="10.10" departSpeed="0.00" departDelay="0.00" arrival="185.00" arrivalLane="3o_0" arrivalPos="492.80" arrivalSpeed="11.41" duration="79.00" routeLength="984.53" waitingTime="0.00" waitingCount="0" stopTime="0.00" timeLoss="12.37" rerouteNo="0" devices="tripinfo_WE_106" vType="truck" speedFactor="1.08" vaporized=""/>
    <tripinfo id="EW_102" depart="102.00" departLane="4i_0" departPos="4.10" departSpeed="0.00" departDelay="0.00" arrival="190.00" arrivalLane="1o_0" arrivalPos="492.80" arrivalSpeed="9.75" duration="88.00" routeLength="990.53" waitingTime="0.00" waitingCount="0" stopTime="0.00" timeLoss="12.57" rerouteNo="0" devices="tripinfo_EW_102" vType="car" speedFactor="0.93" vaporized=""/>
    <tripinfo id="EW_103" depart="105.00" departLane="4i_0" departPos="4.10" departSpeed="0.00" departDelay="2.00" arrival="192.00" arrivalLane="1o_0" arrivalPos="492.80" arrivalSpeed="12.68" duration="87.00" routeLength="990.53" waitingTime="0.00" waitingCount="0" stopTime="0.00" timeLoss="26.87" rerouteNo="0" devices="tripinfo_EW_103" vType="car" speedFactor="1.18" vaporized=""/>
    <tripinfo id="WE_107" depart="110.00" departLane="1i_0" departPos="4.10" departSpeed="0.00" departDelay="3.00" arrival="192.00" arrivalLane="2o_0" arrivalPos="492.80" arrivalSpeed="10.42" duration="82.00" routeLength="995.90" waitingTime="0.00" waitingCount="0" stopTime="0.00" timeLoss="11.57" rerouteNo="0" devices="tripinfo_WE_107" vType="car" speedFactor="1.01" vaporized=""/>
    <tripinfo id="NS_113" depart="113.00" departLane="2i_0" departPos="4.10" departSpeed="0.00" departDelay="0.00" arrival="195.00" arrivalLane="3o_0" arrivalPos="492.80" arrivalSpeed="10.13" duration="82.00" routeLength="995.70" waitingTime="0.00" waitingCount="0" stopTime="0.00" timeLoss="10.67" rerouteNo="0" devices="tripinfo_NS_113" vType="car" speedFactor="0.99" vaporized=""/>
    <tripinfo id="NS_117" depart="117.00" departLane="2i_0" departPos="4.10" departSpeed="0.00" departDelay="0.00" arrival="195.00" arrivalLane="4o_0" arrivalPos="492.80" arrivalSpeed="10.58" duration="78.00" routeLength="990.53" waitingTime="0.00" waitingCount="0" stopTime="0.00" timeLoss="8.55" rerouteNo="0" devices="tripinfo_NS_117" vType="car" speedFactor="1.02" vaporized=""/>
    <tripinfo id="NS_124" depart="124.00" departLane="2i_0" departPos="4.10" departSpeed="0.00" departDelay="0.00" arrival="205.00" arrivalLane="4o_0" arrivalPos="492.80" arrivalSpeed="9.66" duration="81.00" routeLength="990.53" waitingTime="0.00" waitingCount="0" stopTime="0.00" timeLoss="8.92" rerouteNo="0" devices="tripinfo_NS_124" vType="car" speedFactor="0.97" vaporized=""/>
    <tripinfo id="WE_127" depart="127.00" departLane="1i_0" departPos="4.10" departSpeed="0.00" departDelay="0.00" arrival="207.00" arrivalLane="4o_0" arrivalPos="492.80" arrivalSpeed="12.38" duration="80.00" routeLength="995.70" waitingTime="0.00" waitingCount="0" stopTime="0.00" timeLoss="19.66" rerouteNo="0" devices="tripinfo_WE_127" vType="car" speedFactor="1.18" vaporized=""/>
    <tripinfo id="WE_128" depart="131.00" departLane="1i_0" departPos="10.10" departSpeed="0.00" departDelay="3.00" arrival="210.00" arrivalLane="3o_0" arrivalPos="492.80" arrivalSpeed="11.33" duration="79.00" routeLength="984.53" waitingTime="0.00" waitingCount="0" stopTime="0.00" timeLoss="11.58" rerouteNo="0" devices="tripinfo_WE_128" vType="truck" speedFactor="1.05" vaporized=""/>
    <tripinfo id="NS_128" depart="128.00" departLane="2i_0" departPos="4.10" departSpeed="0.00" departDelay="0.00" arrival="215.00" arrivalLane="4o_0" arrivalPos="492.80" arrivalSpeed="9.57" duration="87.00" routeLength="990.53" waitingTime="0.00" waitingCount="0" stopTime="0.00" timeLoss="8.75" rerouteNo="0" devices="tripinfo_NS_128" vType="car" speedFactor="0.90" vaporized=""/>
    <tripinfo id="WE_130" depart="135.00" departLane="1i_0" departPos="4.10" departSpeed="0.00" departDelay="5.00" arrival="241.00" arrivalLane="4o_0" arrivalPos="492.80" arrivalSpeed="10.96" duration="106.00" routeLength="995.70" waitingTime="21.00" waitingCount="1" stopTime="0.00" timeLoss="37.14" rerouteNo="0" devices="tripinfo_WE_130" vType="car" speedFactor="1.03" vaporized=""/>
    <tripinfo id="SN_137" depart="137.00" departLane="3i_0" departPos="4.10" departSpeed="0.00" departDelay="0.00" arrival="242.00" arrivalLane="2o_0" arrivalPos="492.80" arrivalSpeed="10.61" duration="105.00" routeLength="990.53" waitingTime="19.00" waitingCount="1" stopTime="0.00" timeLoss="34.24" rerouteNo="0" devices="tripinfo_SN_137" vType="car" speedFactor="1.00" vaporized=""/>
    <tripinfo id="NS_130" depart="132.00" departLane="2i_0" departPos="10.10" departSpeed="0.00" departDelay="2.00" arrival="244.00" arrivalLane="3o_0" arrivalPos="492.80" arrivalSpeed="10.54" duration="112.00" routeLength="989.70" waitingTime="19.00" waitingCount="1" stopTime="0.00" timeLoss="40.12" rerouteNo="0" devices="tripinfo_NS_130" vType="truck" speedFactor="0.98" vaporized=""/>
    <tripinfo id="WE_132" depart="138.00" departLane="1i_0" departPos="4.10" departSpeed="0.00" departDelay="6.00" arrival="244.00" arrivalLane="2o_0" arrivalPos="492.80" arrivalSpeed="11.48" duration="106.00" routeLength="995.90" waitingTime="20.00" waitingCount="1" stopTime="0.00" timeLoss="40.73" rerouteNo="0" devices="tripinfo_WE_132" vType="car" speedFactor="1.09" vaporized=""/>
    <tripinfo id="WE_133" depart="141.00" departLane="1i_0" departPos="4.10" departSpeed="0.00" departDelay="8.00" arrival="247.00" arrivalLane="3o_0" arrivalPos="492.80" arrivalSpeed="10.95" duration="106.00" routeLength="990.53" waitingTime="18.00" waitingCount="1" stopTime="0.00" timeLoss="37.97" rerouteNo="0" devices="tripinfo_WE_133" vType="car" speedFactor="1.04" vaporized=""/>
    <tripinfo id="WE_160" depart="160.00" departLane="1i_0" departPos="4.10" departSpeed="0.00" departDelay="0.00" arrival="251.00" arrivalLane="2o_0" arrivalPos="492.80" arrivalSpeed="10.56" duration="91.00" routeLength="995.90" waitingTime="2.00" waitingCount="1" stopTime="0.00" timeLoss="19.97" rerouteNo="0" devices="tripinfo_WE_160" vType="car" speedFactor="1.00" vaporized=""/>
    <tripinfo id="WE_163" depart="164.00" departLane="1i_0" departPos="4.10" departSpeed="0.00" departDelay="1.00" arrival="259.00" arrivalLane="3o_0" arrivalPos="492.80" arrivalSpeed="9.36" duration="95.00" routeLength="990.53" waitingTime="0.00" waitingCount="0" stopTime="0.00" timeLoss="16.10" rerouteNo="0" devices="tripinfo_WE_163" vType="car" speedFactor="0.90" vaporized=""/>
    <tripinfo id="WE_189" depart="190.00" departLane="1i_0" departPos="4.10" departSpeed="0.00" departDelay="1.00" arrival="267.00" arrivalLane="3o_0" arrivalPos="492.80" arrivalSpeed="11.20" duration="77.00" routeLength="990.53" waitingTime="0.00" waitingCount="0" stopTime="0.00" timeLoss="8.28" rerouteNo="0" devices="tripinfo_WE_189" vType="car" speedFactor="1.04" vaporized=""/>
    <tripinfo id="WE_197" depart="197.00" departLane="1i_0" departPos="4.10" departSpeed="0.00" departDelay="0.00" arrival="280.00" arrivalLane="3o_0" arrivalPos="492.80" arrivalSpeed="9.29" duration="83.00" routeLength="990.53" waitingTime="0.00" waitingCount="0" stopTime="0.00" timeLoss="7.95" rerouteNo="0" devices="tripinfo_WE_197" vType="car" speedFactor="0.94" vaporized=""/>
    <tripinfo id="NS_132" depart="136.00" departLane="2i_0" departPos="4.10" departSpeed="0.00" departDelay="4.00" arrival="282.00" arrivalLane="3o_0" arrivalPos="492.80" arrivalSpeed="11.07" duration="146.00" routeLength="995.70" waitingTime="48.00" waitingCount="2" stopTime="0.00" timeLoss="77.51" rerouteNo="0" devices="tripinfo_NS_132" vType="car" speedFactor="1.04" vaporized=""/>
    <tripinfo id="NS_134" depart="138.00" departLane="2i_0" departPos="4.10" departSpeed="0.00" departDelay="4.00" arrival="284.00" arrivalLane="3o_0" arrivalPos="492.80" arrivalSpeed="10.98" duration="146.00" routeLength="995.70" waitingTime="46.00" waitingCount="2" stopTime="0.00" timeLoss="80.41" rerouteNo="0" devices="tripinfo_NS_134" vType="car" speedFactor="1.09" vaporized=""/>
    <tripinfo id="NS_146" depart="146.00" departLane="2i_0" departPos="4.10" departSpeed="0.00" departDelay="0.00" arrival="292.00" arrivalLane="4o_0" arrivalPos="492.80" arrivalSpeed="8.67" duration="146.00" routeLength="990.53" waitingTime="41.00" waitingCount="2" stopTime="0.00" timeLoss="63.49" rerouteNo="0" devices="tripinfo_NS_146" vType="car" speedFactor="0.85" vaporized=""/>
    <tripinfo id="NS_179" depart="179.00" departLane="2i_0" departPos="4.10" departSpeed="0.00" departDelay="0.00" arrival="292.00" arrivalLane="3o_0" arrivalPos="492.80" arrivalSpeed="9.13" duration="113.00" routeLength="995.70" waitingTime="21.00" waitingCount="1" stopTime="0.00" timeLoss="37.59" rerouteNo="0" devices="tripinfo_NS_179" vType="car" speedFactor="0.94" vaporized=""/>
    <tripinfo id="NS_167" depart="167.00" departLane="2i_0" departPos="4.10" departSpeed="0.00" departDelay="0.00" arrival="294.00" arrivalLane="4o_0" arrivalPos="492.80" arrivalSpeed="10.38" duration="127.00" routeLength="990.53" waitingTime="27.00" waitingCount="1" stopTime="0.00" timeLoss="53.95" rerouteNo="0" devices="tripinfo_NS_167" vType="car" speedFactor="0.97" vaporized=""/>
    <tripinfo id="NS_180" depart="182.00" departLane="2i_0" departPos="4.10" departSpeed="0.00" departDelay="2.00" arrival="298.00" arrivalLane="1o_0" arrivalPos="492.80" arrivalSpeed="9.22" duration="116.00" routeLength="995.90" waitingTime="18.00" waitingCount="1" stopTime="0.00" timeLoss="35.18" rerouteNo="0" devices="tripinfo_NS_180" vType="car" speedFactor="0.88" vaporized=""/>
    <tripinfo id="NS_182" depart="185.00" departLane="2i_0" departPos="4.10" departSpeed="0.00" departDelay="3.00" arrival="298.00" arrivalLane="4o_0" arrivalPos="492.80" arrivalSpeed="9.77" duration="113.00" routeLength="990.53" waitingTime="17.00" waitingCount="1" stopTime="0.00" timeLoss="35.18" rerouteNo="0" devices="tripinfo_NS_182" vType="car" speedFactor="0.91" vaporized=""/>
    <tripinfo id="NS_199" depart="199.00" departLane="2i_0" departPos="4.10" departSpeed="0.00" departDelay="0.00" arrival="300.00" arrivalLane="4o_0" arrivalPos="492.80" arrivalSpeed="11.21" duration="101.00" routeLength="990.53" waitingTime="10.00" waitingCount="1" stopTime="0.00" timeLoss="33.77" rerouteNo="0" devices="tripinfo_NS_199" vType="car" speedFactor="1.06" vaporized=""/>
    <tripinfo id="WE_205" depart="205.00" departLane="1i_0" departPos="4.10" departSpeed="0.00" departDelay="0.00" arrival="302.00" arrivalLane="4o_0" arrivalPos="492.80" arrivalSpeed="9.59" duration="97.00" routeLength="995.70" waitingTime="7.00" waitingCount="1" stopTime="0.00" timeLoss="22.56" rerouteNo="0" devices="tripinfo_WE_205" vType="car" speedFactor="0.96" vaporized=""/>
    <tripinfo id="WE_220" depart="220.00" departLane="1i_0" departPos="4.10" departSpeed="0.00" departDelay="0.00" arrival="304.00" arrivalLane="4o_0" arrivalPos="492.80" arrivalSpeed="10.22" duration="84.00" routeLength="995.70" waitingTime="0.00" waitingCount="0" stopTime="0.00" timeLoss="11.46" rerouteNo="0" devices="tripinfo_WE_220" vType="car" speedFactor="0.98" vaporized=""/>
    <tripinfo id="WE_231" depart="231.00" departLane="1i_0" departPos="4.10" departSpeed="0.00" departDelay="0.00" arrival="305.00" arrivalLane="2o_0" arrivalPos="492.80" arrivalSpeed="11.56" duration="74.00" routeLength="995.90" waitingTime="0.00" waitingCount="0" stopTime="0.00" timeLoss="8.49" rerouteNo="0" devices="tripinfo_WE_231" vType="car" speedFactor="1.09" vaporized=""/>
    <tripinfo id="NS_234" depart="234.00" departLane="2i_0" departPos="4.10" departSpeed="0.00" departDelay="0.00" arrival="320.00" arrivalLane="3o_0" arrivalPos="492.80" arrivalSpeed="11.26" duration="86.00" routeLength="995.70" waitingTime="3.00" waitingCount="1" stopTime="0.00" timeLoss="16.58" rerouteNo="0" devices="tripinfo_NS_234" vType="car" speedFactor="1.02" vaporized=""/>
    <tripinfo id="NS_238" depart="238.00" departLane="2i_0" departPos="4.10" departSpeed="0.00" departDelay="0.00" arrival="325.00" arrivalLane="3o_0" arrivalPos="492.80" arrivalSpeed="10.69" duration="87.00" routeLength="995.70" waitingTime="0.00" waitingCount="0" stopTime="0.00" timeLoss="13.02" rerouteNo="0" devices="tripinfo_NS_238" vType="car" speedFactor="0.97" vaporized=""/>
    <tripinfo id="NS_243" depart="244.00" departLane="2i_0" departPos="4.10" departSpeed="0.00" departDelay="1.00" arrival="328.00" arrivalLane="3o_0" arrivalPos="492.80" arrivalSpeed="9.76" duration="84.00" routeLength="995.70" waitingTime="0.00" waitingCount="0" stopTime="0.00" timeLoss="11.12" rerouteNo="0" devices="tripinfo_NS_243" vType="car" speedFactor="0.98" vaporized=""/>
    <tripinfo id="NS_247" depart="247.00" departLane="2i_0" departPos="4.10" departSpeed="0.00" departDelay="0.00" arrival="328.00" arrivalLane="1o_0" arrivalPos="492.80" arrivalSpeed="10.45" duration="81.00" routeLength="995.90" waitingTime="0.00" waitingCount="0" stopTime="0.00" timeLoss="9.75" rerouteNo="0" devices="tripinfo_NS_247" vType="car" speedFactor="1.00" vaporized=""/>
    <tripinfo id="WE_232" depart="234.00" departLane="1i_0" departPos="4.10" departSpeed="0.00" departDelay="2.00" arrival="330.00" arrivalLane="4o_0" arrivalPos="492.80" arrivalSpeed="11.31" duration="96.00" routeLength="995.70" waitingTime="14.00" waitingCount="1" stopTime="0.00" timeLoss="27.28" rerouteNo="0" devices="tripinfo_WE_232" vType="car" speedFactor="1.03" vaporized=""/>
    <tripinfo id="WE_233" depart="237.00" departLane="1i_0" departPos="4.10" departSpeed="0.00" departDelay="4.00" arrival="334.00" arrivalLane="2o_0" arrivalPos="492.80" arrivalSpeed="9.99" duration="97.00" routeLength="995.90" waitingTime="12.00" waitingCount="1" stopTime="0.00" timeLoss="25.52" rerouteNo="0" devices="tripinfo_WE_233" vType="car" speedFactor="1.00" vaporized=""/>
    <tripinfo id="WE_271" depart="271.00" departLane="1i_0" departPos="4.10" departSpeed="0.00" departDelay="0.00" arrival="349.00" arrivalLane="3o_0" arrivalPos="492.80" arrivalSpeed="11.18" duration="78.00" routeLength="990.53" waitingTime="0.00" waitingCount="0" stopTime="0.00" timeLoss="7.96" rerouteNo="0" devices="tripinfo_WE_271" vType="car" speedFactor="1.02" vaporized=""/>
    <tripinfo id="NS_274" depart="274.00" departLane="2i_0" departPos="4.10" departSpeed="0.00" departDelay="0.00" arrival="363.00" arrivalLane="1o_0" arrivalPos="492.80" arrivalSpeed="8.80" duration="89.00" routeLength="995.90" waitingTime="0.00" waitingCount="0" stopTime="0.00" timeLoss="9.18" rerouteNo="0" devices="tripinfo_NS_274" vType="car" speedFactor="0.89" vaporized=""/>
    <tripinfo id="NS_275" depart="277.00" departLane="2i_0" departPos="4.10" departSpeed="0.00" departDelay="2.00" arrival="365.00" arrivalLane="1o_0" arrivalPos="492.80" arrivalSpeed="10.24" duration="88.00" routeLength="995.90" waitingTime="0.00" waitingCount="0" stopTime="0.00" timeLoss="10.67" rerouteNo="0" devices="tripinfo_NS_275" vType="car" speedFactor="0.92" vaporized=""/>
    <tripinfo id="NS_286" depart="286.00" departLane="2i_0" departPos="4.10" departSpeed="0.00" departDelay="0.00" arrival="367.00" arrivalLane="1o_0" arrivalPos="492.80" arrivalSpeed="10.79" duration="81.00" routeLength="995.90" waitingTime="0.00" waitingCount="0" stopTime="0.00" timeLoss="13.38" rerouteNo="0" devices="tripinfo_NS_286" vType="car" speedFactor="1.06" vaporized=""/>
    <tripinfo id="WE_275" depart="275.00" departLane="1i_0" departPos="4.10" departSpeed="0.00" departDelay="0.00" arrival="369.00" arrivalLane="3o_0" arrivalPos="492.80" arrivalSpeed="8.61" duration="94.00" routeLength="990.53" waitingTime="0.00" waitingCount="0" stopTime="0.00" timeLoss="9.34" rerouteNo="0" devices="tripinfo_WE_275" vType="car" speedFactor="0.83" vaporized=""/>
    <tripinfo id="NS_291" depart="291.00" departLane="2i_0" departPos="4.10" departSpeed="0.00" departDelay="0.00" arrival="369.00" arrivalLane="1o_0" arrivalPos="492.80" arrivalSpeed="10.00" duration="78.00" routeLength="995.90" waitingTime="0.00" waitingCount="0" stopTime="0.00" timeLoss="8.16" rerouteNo="0" devices="tripinfo_NS_291" vType="car" speedFactor="1.01" vaporized=""/>
    <tripinfo id="NS_309" depart="309.00" departLane="2i_0" departPos="10.10" departSpeed="0.00" departDelay="0.00" arrival="390.00" arrivalLane="4o_0" arrivalPos="492.80" arrivalSpeed="11.12" duration="81.00" routeLength="984.53" waitingTime="0.00" waitingCount="0" stopTime="0.00" timeLoss="13.39" rerouteNo="0" devices="tripinfo_NS_309" vType="truck" speedFactor="1.05" vaporized=""/>
    <tripinfo id="WE_308" depart="308.00" departLane="1i_0" departPos="4.10" departSpeed="0.00" departDelay="0.00" arrival="395.00" arrivalLane="2o_0" arrivalPos="492.80" arrivalSpeed="9.64" duration="87.00" routeLength="995.90" waitingTime="0.00" waitingCount="0" stopTime="0.00" timeLoss="8.47" rerouteNo="0" devices="tripinfo_WE_308" vType="car" speedFactor="0.91" vaporized=""/>
    <tripinfo id="NS_315" depart="315.00" departLane="2i_0" departPos="4.10" departSpeed="0.00" departDelay="0.00" arrival="398.00" arrivalLane="1o_0" arrivalPos="492.80" arrivalSpeed="9.90" duration="83.00" routeLength="995.90" waitingTime="0.00" waitingCount="0" stopTime="0.00" timeLoss="9.93" rerouteNo="0" devices="tripinfo_NS_315" vType="car" speedFactor="0.97" vaporized=""/>
    <tripinfo id="NS_320" depart="320.00" departLane="2i_0" departPos="4.10" departSpeed="0.00" departDelay="0.00" arrival="400.00" arrivalLane="3o_0" arrivalPos="492.80" arrivalSpeed="10.84" duration="80.00" routeLength="995.70" waitingTime="0.00" waitingCount="0" stopTime="0.00" timeLoss="10.06" rerouteNo="0" devices="tripinfo_NS_320" vType="car" speedFactor="1.01" vaporized=""/>
    <tripinfo id="NS_326" depart="326.00" departLane="2i_0" departPos="4.10" departSpeed="0.00" departDelay="0.00" arrival="401.00" arrivalLane="4o_0" arrivalPos="492.80" arrivalSpeed="11.82" duration="75.00" routeLength="990.53" waitingTime="0.00" waitingCount="0" stopTime="0.00" timeLoss="8.48" rerouteNo="0" devices="tripinfo_NS_326" vType="car" speedFactor="1.06" vaporized=""/>