<?xml version="1.0" encoding="UTF-8"?>

<!-- generated on 2024-05-05 23:02:59 by Eclipse SUMO sumo Version 1.19.0
<configuration xmlns:xsi="http://www.w3.org/2001/XMLSchema-instance" xsi:noNamespaceSchemaLocation="http://sumo.dlr.de/xsd/sumoConfiguration.xsd">

    <input>
        <net-file value="twoone.net.xml"/>
        <route-files value="route_gen.rou.xml"/>
    </input>

    <output>
        <tripinfo-output value="tripinfo_epi449.xml"/>
    </output>

    <report>
        <no-warnings value="true"/>
    </report>

    <traci_server>
        <remote-port value="58433"/>
    </traci_server>

</configuration>
-->

<tripinfos xmlns:xsi="http://www.w3.org/2001/XMLSchema-instance" xsi:noNamespaceSchemaLocation="http://sumo.dlr.de/xsd/tripinfo_file.xsd">
    <tripinfo id="NS_1" depart="1.00" departLane="2i_0" departPos="4.10" departSpeed="0.00" departDelay="0.00" arrival="76.00" arrivalLane="4o_0" arrivalPos="492.80" arrivalSpeed="11.60" duration="75.00" routeLength="990.53" waitingTime="0.00" waitingCount="0" stopTime="0.00" timeLoss="7.68" rerouteNo="0" devices="tripinfo_NS_1" vType="car" speedFactor="1.06" vaporized=""/>
    <tripinfo id="WE_11" depart="11.00" departLane="1i_0" departPos="4.10" departSpeed="0.00" departDelay="0.00" arrival="87.00" arrivalLane="4o_0" arrivalPos="492.80" arrivalSpeed="11.95" duration="76.00" routeLength="995.70" waitingTime="0.00" waitingCount="0" stopTime="0.00" timeLoss="10.21" rerouteNo="0" devices="tripinfo_WE_11" vType="car" speedFactor="1.08" vaporized=""/>
    <tripinfo id="EW_11" depart="11.00" departLane="4i_0" departPos="4.10" departSpeed="0.00" departDelay="0.00" arrival="89.00" arrivalLane="1o_0" arrivalPos="492.80" arrivalSpeed="10.36" duration="78.00" routeLength="990.53" waitingTime="0.00" waitingCount="0" stopTime="0.00" timeLoss="9.55" rerouteNo="0" devices="tripinfo_EW_11" vType="car" speedFactor="1.03" vaporized=""/>
    <tripinfo id="SN_5" depart="5.00" departLane="3i_0" departPos="4.10" departSpeed="0.00" departDelay="0.00" arrival="95.00" arrivalLane="2o_0" arrivalPos="492.80" arrivalSpeed="9.86" duration="90.00" routeLength="990.53" waitingTime="2.00" waitingCount="1" stopTime="0.00" timeLoss="14.89" rerouteNo="0" devices="tripinfo_SN_5" vType="car" speedFactor="0.94" vaporized=""/>
    <tripinfo id="NS_16" depart="16.00" departLane="2i_0" departPos="10.10" departSpeed="0.00" departDelay="0.00" arrival="97.00" arrivalLane="1o_0" arrivalPos="492.80" arrivalSpeed="11.06" duration="81.00" routeLength="989.90" waitingTime="0.00" waitingCount="0" stopTime="0.00" timeLoss="12.21" rerouteNo="0" devices="tripinfo_NS_16" vType="truck" speedFactor="1.02" vaporized=""/>
    <tripinfo id="SN_8" depart="8.00" departLane="3i_0" departPos="4.10" departSpeed="0.00" departDelay="0.00" arrival="98.00" arrivalLane="2o_0" arrivalPos="492.80" arrivalSpeed="11.13" duration="90.00" routeLength="990.53" waitingTime="1.00" waitingCount="1" stopTime="0.00" timeLoss="19.71" rerouteNo="0" devices="tripinfo_SN_8" vType="car" speedFactor="1.01" vaporized=""/>
    <tripinfo id="EW_17" depart="17.00" departLane="4i_0" departPos="10.10" departSpeed="0.00" departDelay="0.00" arrival="105.00" arrivalLane="3o_0" arrivalPos="492.80" arrivalSpeed="10.44" duration="88.00" routeLength="989.90" waitingTime="0.00" waitingCount="0" stopTime="0.00" timeLoss="13.09" rerouteNo="0" devices="tripinfo_EW_17" vType="truck" speedFactor="0.94" vaporized=""/>
    <tripinfo id="EW_18" depart="21.00" departLane="4i_0" departPos="4.10" departSpeed="0.00" departDelay="3.00" arrival="113.00" arrivalLane="2o_0" arrivalPos="492.80" arrivalSpeed="9.40" duration="92.00" routeLength="995.70" waitingTime="0.00" waitingCount="0" stopTime="0.00" timeLoss="16.05" rerouteNo="0" devices="tripinfo_EW_18" vType="car" speedFactor="0.94" vaporized=""/>
    <tripinfo id="SN_14" depart="14.00" departLane="3i_0" departPos="4.10" departSpeed="0.00" departDelay="0.00" arrival="115.00" arrivalLane="4o_0" arrivalPos="492.80" arrivalSpeed="8.05" duration="101.00" routeLength="995.90" waitingTime="1.00" waitingCount="1" stopTime="0.00" timeLoss="16.14" rerouteNo="0" devices="tripinfo_SN_14" vType="car" speedFactor="0.83" vaporized=""/>
    <tripinfo id="NS_19" depart="20.00" departLane="2i_0" departPos="4.10" departSpeed="0.00" departDelay="1.00" arrival="116.00" arrivalLane="3o_0" arrivalPos="492.80" arrivalSpeed="9.30" duration="96.00" routeLength="995.70" waitingTime="0.00" waitingCount="0" stopTime="0.00" timeLoss="12.59" rerouteNo="0" devices="tripinfo_NS_19" vType="car" speedFactor="0.86" vaporized=""/>
    <tripinfo id="NS_23" depart="23.00" departLane="2i_0" departPos="4.10" departSpeed="0.00" departDelay="0.00" arrival="136.00" arrivalLane="3o_0" arrivalPos="492.80" arrivalSpeed="11.30" duration="113.00" routeLength="995.70" waitingTime="28.00" waitingCount="1" stopTime="0.00" timeLoss="48.30" rerouteNo="0" devices="tripinfo_NS_23" vType="car" speedFactor="1.09" vaporized=""/>
    <tripinfo id="NS_28" depart="28.00" departLane="2i_0" departPos="4.10" departSpeed="0.00" departDelay="0.00" arrival="140.00" arrivalLane="1o_0" arrivalPos="492.80" arrivalSpeed="10.37" duration="112.00" routeLength="995.90" waitingTime="25.00" waitingCount="1" stopTime="0.00" timeLoss="44.31" rerouteNo="0" devices="tripinfo_NS_28" vType="car" speedFactor="1.05" vaporized=""/>
    <tripinfo id="NS_40" depart="40.00" departLane="2i_0" departPos="4.10" departSpeed="0.00" departDelay="0.00" arrival="144.00" arrivalLane="4o_0" arrivalPos="492.80" arrivalSpeed="10.78" duration="104.00" routeLength="990.53" waitingTime="18.00" waitingCount="1" stopTime="0.00" timeLoss="32.62" rerouteNo="0" devices="tripinfo_NS_40" vType="car" speedFactor="0.99" vaporized=""/>
    <tripinfo id="NS_70" depart="70.00" departLane="2i_0" departPos="4.10" departSpeed="0.00" departDelay="0.00" arrival="148.00" arrivalLane="4o_0" arrivalPos="492.80" arrivalSpeed="12.46" duration="78.00" routeLength="990.53" waitingTime="0.00" waitingCount="0" stopTime="0.00" timeLoss="17.17" rerouteNo="0" devices="tripinfo_NS_70" vType="car" speedFactor="1.16" vaporized=""/>
    <tripinfo id="EW_24" depart="24.00" departLane="4i_0" departPos="4.10" departSpeed="0.00" departDelay="0.00" arrival="149.00" arrivalLane="3o_0" arrivalPos="492.80" arrivalSpeed="10.33" duration="125.00" routeLength="995.90" waitingTime="36.00" waitingCount="1" stopTime="0.00" timeLoss="55.90" rerouteNo="0" devices="tripinfo_EW_24" vType="car" speedFactor="1.03" vaporized=""/>
    <tripinfo id="WE_36" depart="36.00" departLane="1i_0" departPos="4.10" departSpeed="0.00" departDelay="0.00" arrival="152.00" arrivalLane="4o_0" arrivalPos="492.80" arrivalSpeed="12.19" duration="116.00" routeLength="995.70" waitingTime="38.00" waitingCount="1" stopTime="0.00" timeLoss="52.88" rerouteNo="0" devices="tripinfo_WE_36" vType="car" speedFactor="1.12" vaporized=""/>
    <tripinfo id="NS_64" depart="64.00" departLane="2i_0" departPos="10.10" departSpeed="0.00" departDelay="0.00" arrival="154.00" arrivalLane="1o_0" arrivalPos="492.80" arrivalSpeed="10.60" duration="90.00" routeLength="989.90" waitingTime="0.00" waitingCount="0" stopTime="0.00" timeLoss="16.98" rerouteNo="0" devices="tripinfo_NS_64" vType="truck" speedFactor="0.97" vaporized=""/>
    <tripinfo id="SN_59" depart="59.00" departLane="3i_0" departPos="4.10" departSpeed="0.00" departDelay="0.00" arrival="156.00" arrivalLane="2o_0" arrivalPos="492.80" arrivalSpeed="9.68" duration="97.00" routeLength="990.53" waitingTime="2.00" waitingCount="1" stopTime="0.00" timeLoss="16.75" rerouteNo="0" devices="tripinfo_SN_59" vType="car" speedFactor="0.88" vaporized=""/>
    <tripinfo id="EW_71" depart="71.00" departLane="4i_0" departPos="4.10" departSpeed="0.00" departDelay="0.00" arrival="160.00" arrivalLane="3o_0" arrivalPos="492.80" arrivalSpeed="10.51" duration="89.00" routeLength="995.90" waitingTime="2.00" waitingCount="1" stopTime="0.00" timeLoss="19.05" rerouteNo="0" devices="tripinfo_EW_71" vType="car" speedFactor="1.02" vaporized=""/>
    <tripinfo id="SN_62" depart="62.00" departLane="3i_0" departPos="4.10" departSpeed="0.00" departDelay="0.00" arrival="166.00" arrivalLane="1o_0" arrivalPos="492.80" arrivalSpeed="10.21" duration="104.00" routeLength="995.70" waitingTime="9.00" waitingCount="3" stopTime="0.00" timeLoss="28.77" rerouteNo="0" devices="tripinfo_SN_62" vType="car" speedFactor="0.94" vaporized=""/>
    <tripinfo id="WE_57" depart="57.00" departLane="1i_0" departPos="4.10" departSpeed="0.00" departDelay="0.00" arrival="168.00" arrivalLane="3o_0" arrivalPos="492.80" arrivalSpeed="9.96" duration="111.00" routeLength="990.53" waitingTime="17.00" waitingCount="2" stopTime="0.00" timeLoss="34.60" rerouteNo="0" devices="tripinfo_WE_57" vType="car" speedFactor="0.93" vaporized=""/>
    <tripinfo id="SN_75" depart="75.00" departLane="3i_0" departPos="4.10" departSpeed="0.00" departDelay="0.00" arrival="168.00" arrivalLane="1o_0" arrivalPos="492.80" arrivalSpeed="10.46" duration="93.00" routeLength="995.70" waitingTime="4.00" waitingCount="1" stopTime="0.00" timeLoss="20.44" rerouteNo="0" devices="tripinfo_SN_75" vType="car" speedFactor="0.97" vaporized=""/>
    <tripinfo id="NS_74" depart="74.00" departLane="2i_0" departPos="4.10" departSpeed="0.00" departDelay="0.00" arrival="170.00" arrivalLane="3o_0" arrivalPos="492.80" arrivalSpeed="10.22" duration="96.00" routeLength="995.70" waitingTime="5.00" waitingCount="1" stopTime="0.00" timeLoss="25.35" rerouteNo="0" devices="tripinfo_NS_74" vType="car" speedFactor="1.01" vaporized=""/>
    <tripinfo id="SN_78" depart="78.00" departLane="3i_0" departPos="4.10" departSpeed="0.00" departDelay="0.00" arrival="178.00" arrivalLane="2o_0" arrivalPos="492.80" arrivalSpeed="9.21" duration="100.00" routeLength="990.53" waitingTime="3.00" waitingCount="2" stopTime="0.00" timeLoss="20.78" rerouteNo="0" devices="tripinfo_SN_78" vType="car" speedFactor="0.89" vaporized=""/>
    <tripinfo id="EW_89" depart="89.00" departLane="4i_0" departPos="4.10" departSpeed="0.00" departDelay="0.00" arrival="183.00" arrivalLane="1o_0" arrivalPos="492.80" arrivalSpeed="9.93" duration="94.00" routeLength="990.53" waitingTime="7.00" waitingCount="1" stopTime="0.00" timeLoss="17.26" rerouteNo="0" devices="tripinfo_EW_89" vType="car" speedFactor="0.92" vaporized=""/>
    <tripinfo id="SN_81" depart="81.00" departLane="3i_0" departPos="4.10" departSpeed="0.00" departDelay="0.00" arrival="193.00" arrivalLane="1o_0" arrivalPos="492.80" arrivalSpeed="8.13" duration="112.00" routeLength="995.70" waitingTime="3.00" waitingCount="1" stopTime="0.00" timeLoss="25.79" rerouteNo="0" devices="tripinfo_SN_81" vType="car" speedFactor="0.83" vaporized=""/>
    <tripinfo id="SN_85" depart="85.00" departLane="3i_0" departPos="4.10" departSpeed="0.00" departDelay="0.00" arrival="194.00" arrivalLane="1o_0" arrivalPos="492.80" arrivalSpeed="8.66" duration="109.00" routeLength="995.70" waitingTime="2.00" waitingCount="1" stopTime="0.00" timeLoss="28.03" rerouteNo="0" devices="tripinfo_SN_85" vType="car" speedFactor="0.87" vaporized=""/>
    <tripinfo id="NS_141" depart="141.00" departLane="2i_0" departPos="4.10" departSpeed="0.00" departDelay="0.00" arrival="216.00" arrivalLane="3o_0" arrivalPos="492.80" arrivalSpeed="11.20" duration="75.00" routeLength="995.70" waitingTime="0.00" waitingCount="0" stopTime="0.00" timeLoss="10.32" rerouteNo="0" devices="tripinfo_NS_141" vType="car" speedFactor="1.10" vaporized=""/>
    <tripinfo id="WE_149" depart="149.00" departLane="1i_0" departPos="4.10" departSpeed="0.00" departDelay="0.00" arrival="224.00" arrivalLane="4o_0" arrivalPos="492.80" arrivalSpeed="10.98" duration="75.00" routeLength="995.70" waitingTime="0.00" waitingCount="0" stopTime="0.00" timeLoss="9.81" rerouteNo="0" devices="tripinfo_WE_149" vType="car" speedFactor="1.09" vaporized=""/>
    <tripinfo id="NS_146" depart="146.00" departLane="2i_0" departPos="4.10" departSpeed="0.00" departDelay="0.00" arrival="225.00" arrivalLane="3o_0" arrivalPos="492.80" arrivalSpeed="11.15" duration="79.00" routeLength="995.70" waitingTime="0.00" waitingCount="0" stopTime="0.00" timeLoss="9.87" rerouteNo="0" devices="tripinfo_NS_146" vType="car" speedFactor="1.03" vaporized=""/>
    <tripinfo id="WE_157" depart="157.00" departLane="1i_0" departPos="4.10" departSpeed="0.00" departDelay="0.00" arrival="233.00" arrivalLane="3o_0" arrivalPos="492.80" arrivalSpeed="10.55" duration="76.00" routeLength="990.53" waitingTime="0.00" waitingCount="0" stopTime="0.00" timeLoss="8.17" rerouteNo="0" devices="tripinfo_WE_157" vType="car" speedFactor="1.04" vaporized=""/>
    <tripinfo id="NS_155" depart="156.00" departLane="2i_0" departPos="10.10" departSpeed="0.00" departDelay="1.00" arrival="241.00" arrivalLane="3o_0" arrivalPos="492.80" arrivalSpeed="10.84" duration="85.00" routeLength="989.70" waitingTime="0.00" waitingCount="0" stopTime="0.00" timeLoss="15.85" rerouteNo="0" devices="tripinfo_NS_155" vType="truck" speedFactor="1.02" vaporized=""/>
    <tripinfo id="NS_157" depart="160.00" departLane="2i_0" departPos="4.10" departSpeed="0.00" departDelay="3.00" arrival="242.00" arrivalLane="4o_0" arrivalPos="492.80" arrivalSpeed="11.09" duration="82.00" routeLength="990.53" waitingTime="0.00" waitingCount="0" stopTime="0.00" timeLoss="16.85" rerouteNo="0" devices="tripinfo_NS_157" vType="car" speedFactor="1.09" vaporized=""/>
    <tripinfo id="NS_174" depart="174.00" departLane="2i_0" departPos="4.10" departSpeed="0.00" departDelay="0.00" arrival="254.00" arrivalLane="1o_0" arrivalPos="492.80" arrivalSpeed="10.92" duration="80.00" routeLength="995.90" waitingTime="0.00" waitingCount="0" stopTime="0.00" timeLoss="8.99" rerouteNo="0" devices="tripinfo_NS_174" vType="car" speedFactor="1.00" vaporized=""/>
    <tripinfo id="NS_161" depart="163.00" departLane="2i_0" departPos="4.10" departSpeed="0.00" departDelay="2.00" arrival="255.00" arrivalLane="4o_0" arrivalPos="492.80" arrivalSpeed="8.68" duration="92.00" routeLength="990.53" waitingTime="0.00" waitingCount="0" stopTime="0.00" timeLoss="11.41" rerouteNo="0" devices="tripinfo_NS_161" vType="car" speedFactor="0.88" vaporized=""/>
    <tripinfo id="NS_186" depart="186.00" departLane="2i_0" departPos="4.10" departSpeed="0.00" departDelay="0.00" arrival="259.00" arrivalLane="4o_0" arrivalPos="492.80" arrivalSpeed="11.03" duration="73.00" routeLength="990.53" waitingTime="0.00" waitingCount="0" stopTime="0.00" timeLoss="7.39" rerouteNo="0" devices="tripinfo_NS_186" vType="car" speedFactor="1.08" vaporized=""/>
    <tripinfo id="NS_163" depart="166.00" departLane="2i_0" departPos="4.10" departSpeed="0.00" departDelay="3.00" arrival="262.00" arrivalLane="3o_0" arrivalPos="492.80" arrivalSpeed="8.58" duration="96.00" routeLength="995.70" waitingTime="0.00" waitingCount="0" stopTime="0.00" timeLoss="12.13" rerouteNo="0" devices="tripinfo_NS_163" vType="car" speedFactor="0.85" vaporized=""/>
    <tripinfo id="WE_161" depart="161.00" departLane="1i_0" departPos="4.10" departSpeed="0.00" departDelay="0.00" arrival="266.00" arrivalLane="4o_0" arrivalPos="492.80" arrivalSpeed="10.84" duration="105.00" routeLength="995.70" waitingTime="21.00" waitingCount="1" stopTime="0.00" timeLoss="33.63" rerouteNo="0" devices="tripinfo_WE_161" vType="car" speedFactor="1.00" vaporized=""/>
    <tripinfo id="WE_167" depart="170.00" departLane="1i_0" departPos="10.10" departSpeed="0.00" departDelay="3.00" arrival="269.00" arrivalLane="4o_0" arrivalPos="492.80" arrivalSpeed="11.97" duration="99.00" routeLength="989.70" waitingTime="7.00" waitingCount="1" stopTime="0.00" timeLoss="32.10" rerouteNo="0" devices="tripinfo_WE_167" vType="truck" speedFactor="1.08" vaporized=""/>
    <tripinfo id="WE_166" depart="166.00" departLane="1i_0" departPos="4.10" departSpeed="0.00" departDelay="0.00" arrival="276.00" arrivalLane="2o_0" arrivalPos="492.80" arrivalSpeed="9.04" duration="110.00" routeLength="995.90" waitingTime="14.00" waitingCount="1" stopTime="0.00" timeLoss="26.52" rerouteNo="0" devices="tripinfo_WE_166" vType="car" speedFactor="0.85" vaporized=""/>
    <tripinfo id="WE_176" depart="176.00" departLane="1i_0" departPos="4.10" departSpeed="0.00" departDelay="0.00" arrival="277.00" arrivalLane="2o_0" arrivalPos="492.80" arrivalSpeed="11.60" duration="101.00" routeLength="995.90" waitingTime="7.00" waitingCount="1" stopTime="0.00" timeLoss="39.05" rerouteNo="0" devices="tripinfo_WE_176" vType="car" speedFactor="1.14" vaporized=""/>
    <tripinfo id="WE_184" depart="184.00" departLane="1i_0" departPos="4.10" departSpeed="0.00" departDelay="0.00" arrival="279.00" arrivalLane="2o_0" arrivalPos="492.80" arrivalSpeed="10.26" duration="95.00" routeLength="995.90" waitingTime="3.00" waitingCount="1" stopTime="0.00" timeLoss="21.77" rerouteNo="0" devices="tripinfo_WE_184" vType="car" speedFactor="0.97" vaporized=""/>
    <tripinfo id="WE_209" depart="209.00" departLane="1i_0" departPos="4.10" departSpeed="0.00" departDelay="0.00" arrival="291.00" arrivalLane="4o_0" arrivalPos="492.80" arrivalSpeed="9.69" duration="82.00" routeLength="995.70" waitingTime="0.00" waitingCount="0" stopTime="0.00" timeLoss="9.72" rerouteNo="0" devices="tripinfo_WE_209" vType="car" speedFactor="0.99" vaporized=""/>
    <tripinfo id="WE_210" depart="211.00" departLane="1i_0" departPos="4.10" departSpeed="0.00" departDelay="1.00" arrival="296.00" arrivalLane="2o_0" arrivalPos="492.80" arrivalSpeed="9.79" duration="85.00" routeLength="995.90" waitingTime="1.00" waitingCount="1" stopTime="0.00" timeLoss="9.31" rerouteNo="0" devices="tripinfo_WE_210" vType="car" speedFactor="0.94" vaporized=""/>
    <tripinfo id="WE_221" depart="223.00" departLane="1i_0" departPos="4.10" departSpeed="0.00" departDelay="2.00" arrival="301.00" arrivalLane="3o_0" arrivalPos="492.80" arrivalSpeed="10.91" duration="78.00" routeLength="990.53" waitingTime="0.00" waitingCount="0" stopTime="0.00" timeLoss="10.05" rerouteNo="0" devices="tripinfo_WE_221" vType="car" speedFactor="1.04" vaporized=""/>
    <tripinfo id="NS_215" depart="215.00" departLane="2i_0" departPos="4.10" departSpeed="0.00" departDelay="0.00" arrival="303.00" arrivalLane="1o_0" arrivalPos="492.80" arrivalSpeed="9.53" duration="88.00" routeLength="995.90" waitingTime="0.00" waitingCount="0" stopTime="0.00" timeLoss="9.31" rerouteNo="0" devices="tripinfo_NS_215" vType="car" speedFactor="0.91" vaporized=""/>
    <tripinfo id="WE_215" depart="215.00" departLane="1i_0" departPos="4.10" departSpeed="0.00" departDelay="0.00" arrival="305.00" arrivalLane="2o_0" arrivalPos="492.80" arrivalSpeed="9.52" duration="90.00" routeLength="995.90" waitingTime="0.00" waitingCount="0" stopTime="0.00" timeLoss="9.19" rerouteNo="0" devices="tripinfo_WE_215" vType="car" speedFactor="0.88" vaporized=""/>
    <tripinfo id="WE_223" depart="225.00" departLane="1i_0" departPos="4.10" departSpeed="0.00" departDelay="2.00" arrival="306.00" arrivalLane="2o_0" arrivalPos="492.80" arrivalSpeed="10.92" duration="81.00" routeLength="995.90" waitingTime="0.00" waitingCount="0" stopTime="0.00" timeLoss="11.91" rerouteNo="0" devices="tripinfo_WE_223" vType="car" speedFactor="1.02" vaporized=""/>
    <tripinfo id="WE_231" depart="231.00" departLane="1i_0" departPos="4.10" departSpeed="0.00" departDelay="0.00" arrival="306.00" arrivalLane="3o_0" arrivalPos="492.80" arrivalSpeed="11.54" duration="75.00" routeLength="990.53" waitingTime="0.00" waitingCount="0" stopTime="0.00" timeLoss="8.00" rerouteNo="0" devices="tripinfo_WE_231" vType="car" speedFactor="1.06" vaporized=""/>
    <tripinfo id="WE_220" depart="220.00" departLane="1i_0" departPos="4.10" departSpeed="0.00" departDelay="0.00" arrival="307.00" arrivalLane="4o_0" arrivalPos="492.80" arrivalSpeed="9.64" duration="87.00" routeLength="995.70" waitingTime="0.00" waitingCount="0" stopTime="0.00" timeLoss="9.31" rerouteNo="0" devices="tripinfo_WE_220" vType="car" speedFactor="0.91" vaporized=""/>
    <tripinfo id="NS_245" depart="245.00" departLane="2i_0" departPos="4.10" departSpeed="0.00" departDelay="0.00" arrival="324.00" arrivalLane="1o_0" arrivalPos="492.80" arrivalSpeed="10.20" duration="79.00" routeLength="995.90" waitingTime="0.00" waitingCount="0" stopTime="0.00" timeLoss="8.31" rerouteNo="0" devices="tripinfo_NS_245" vType="car" speedFactor="1.01" vaporized=""/>
    <tripinfo id="WE_245" depart="245.00" departLane="1i_0" departPos="4.10" departSpeed="0.00" departDelay="0.00" arrival="325.00" arrivalLane="2o_0" arrivalPos="492.80" arrivalSpeed="9.65" duration="80.00" routeLength="995.90" waitingTime="0.00" waitingCount="0" stopTime="0.00" timeLoss="8.12" rerouteNo="0" devices="tripinfo_WE_245" vType="car" speedFactor="0.98" vaporized=""/>
    <tripinfo id="WE_247" depart="248.00" departLane="1i_0" departPos="4.10" departSpeed="0.00" departDelay="1.00" arrival="327.00" arrivalLane="2o_0" arrivalPos="492.80" arrivalSpeed="11.63" duration="79.00" routeLength="995.90" waitingTime="0.00" waitingCount="0" stopTime="0.00" timeLoss="13.58" rerouteNo="0" devices="tripinfo_WE_247" vType="car" speedFactor="1.09" vaporized=""/>
    <tripinfo id="WE_252" depart="252.00" departLane="1i_0" departPos="4.10" departSpeed="0.00" departDelay="0.00" arrival="334.00" arrivalLane="4o_0" arrivalPos="492.80" arrivalSpeed="10.38" duration="82.00" routeLength="995.70" waitingTime="0.00" waitingCount="0" stopTime="0.00" timeLoss="10.42" rerouteNo="0" devices="tripinfo_WE_252" vType="car" speedFactor="1.00" vaporized=""/>
    <tripinfo id="NS_260" depart="260.00" departLane="2i_0" departPos="4.10" departSpeed="0.00" departDelay="0.00" arrival="335.00" arrivalLane="4o_0" arrivalPos="492.80" arrivalSpeed="12.72" duration="75.00" routeLength="990.53" waitingTime="0.00" waitingCount="0" stopTime="0.00" timeLoss="13.32" rerouteNo="0" devices="tripinfo_NS_260" vType="car" speedFactor="1.15" vaporized=""/>
    <tripinfo id="NS_268" depart="268.00" departLane="2i_0" departPos="4.10" departSpeed="0.00" departDelay="0.00" arrival="344.00" arrivalLane="4o_0" arrivalPos="492.80" arrivalSpeed="11.35" duration="76.00" routeLength="990.53" waitingTime="0.00" waitingCount="0" stopTime="0.00" timeLoss="7.92" rerouteNo="0" devices="tripinfo_NS_268" vType="car" speedFactor="1.04" vaporized=""/>
    <tripinfo id="NS_272" depart="272.00" departLane="2i_0" departPos="4.10" departSpeed="0.00" departDelay="0.00" arrival="350.00" arrivalLane="4o_0" arrivalPos="492.80" arrivalSpeed="10.17" duration="78.00" routeLength="990.53" waitingTime="0.00" waitingCount="0" stopTime="0.00" timeLoss="8.56" rerouteNo="0" devices="tripinfo_NS_272" vType="car" speedFactor="1.02" vaporized=""/>
    <tripinfo id="NS_282" depart="282.00" departLane="2i_0" departPos="4.10" departSpeed="0.00" departDelay="0.00" arrival="362.00" arrivalLane="1o_0" arrivalPos="492.80" arrivalSpeed="10.15" duration="80.00" routeLength="995.90" waitingTime="0.00" waitingCount="0" stopTime="0.00" timeLoss="9.59" rerouteNo="0" devices="tripinfo_NS_282" vType="car" speedFactor="1.01" vaporized=""/>
    <tripinfo id="WE_264" depart="264.00" departLane="1i_0" departPos="4.10" departSpeed="0.00" departDelay="0.00" arrival="370.00" arrivalLane="3o_0" arrivalPos="492.80" arrivalSpeed="9.82" duration="106.00" routeLength="990.53" waitingTime="17.00" waitingCount="1" stopTime="0.00" timeLoss="33.25" rerouteNo="0" devices="tripinfo_WE_264" vType="car" speedFactor="0.98" vaporized=""/>
    <tripinfo id="WE_270" depart="270.00" departLane="1i_0" departPos="10.10" departSpeed="0.00" departDelay="0.00" arrival="371.00" arrivalLane="2o_0" arrivalPos="492.80" arrivalSpeed="10.75" duration="101.00" routeLength="989.90" waitingTime="9.00" waitingCount="1" stopTime="0.00" timeLoss="30.71" rerouteNo="0" devices="tripinfo_WE_270" vType="truck" speedFactor="1.01" vaporized=""/>
    <tripinfo id="NS_274" depart="277.00" departLane="2i_0" departPos="4.10" departSpeed="0.00" departDelay="3.00" arrival="371.00" arrivalLane="4o_0" arrivalPos="492.80" arrivalSpeed="8.35" duration="94.00" routeLength="990.53" waitingTime="0.00" waitingCount="0" stopTime="0.00" timeLoss="9.46" rerouteNo="0" devices="tripinfo_NS_274" vType="car" speedFactor="0.83" vaporized=""/>
    <tripinfo id="WE_255" depart="255.00" departLane="1i_0" departPos="4.10" departSpeed="0.00" departDelay="0.00" arrival="373.00" arrivalLane="4o_0" arrivalPos="492.80" arrivalSpeed="10.57" duration="118.00" routeLength="995.70" waitingTime="28.00" waitingCount="1" stopTime="0.00" timeLoss="47.90" rerouteNo="0" devices="tripinfo_WE_255" vType="car" speedFactor="1.02" vaporized=""/>
    <tripinfo id="NS_297" depart="297.00" departLane="2i_0" departPos="4.10" departSpeed="0.00" departDelay="0.00" arrival="381.00" arrivalLane="3o_0" arrivalPos="492.80" arrivalSpeed="10.29" duration="84.00" routeLength="995.70" waitingTime="0.00" waitingCount="0" stopTime="0.00" timeLoss="10.16" rerouteNo="0" devices="tripinfo_NS_297" vType="car" speedFactor="0.96" vaporized=""/>
    <tripinfo id="WE_290" depart="291.00" departLane="1i_0" departPos="4.10" departSpeed="0.00" departDelay="1.00" arrival="383.00" arrivalLane="3o_0" arrivalPos="492.80" arrivalSpeed="11.27" duration="92.00" routeLength="990.53" waitingTime="2.00" waitingCount="1" stopTime="0.00" timeLoss="27.61" rerouteNo="0" devices="tripinfo_WE_290" vType="car" speedFactor="1.10" vaporized=""/>
    <tripinfo id="WE_287" depart="287.00" departLane="1i_0" departPos="10.10" departSpeed="0.00" departDelay="0.00" arrival="385.00" arrivalLane="4o_0" arrivalPos="492.80" arrivalSpeed="10.13" duration="98.00" routeLength="989.70" waitingTime="3.00" waitingCount="1" stopTime="0.00" timeLoss="24.27" rerouteNo="0" devices="tripinfo_WE_287" vType="truck" speedFactor="0.95" vaporized=""/>
    <tripinfo id="WE_305" depart="305.00" departLane="1i_0" departPos="4.10" departSpeed="0.00" departDelay="0.00" arrival="394.00" arrivalLane="2o_0" arrivalPos="492.80" arrivalSpeed="8.99" duration="89.00" routeLength="995.90" waitingTime="0.00" waitingCount="0" stopTime="0.00" timeLoss="9.79" rerouteNo="0" devices="tripinfo_WE_305" vType="car" speedFactor="0.89" vaporized=""/>
    <tripinfo id="NS_324" depart="325.00" departLane="2i_0" departPos="4.10" departSpeed="0.00" departDelay="1.00" arrival="404.00" arrivalLane="3o_0" arrivalPos="492.80" arrivalSpeed="10.62" duration="79.00" routeLength="995.70" waitingTime="0.00" waitingCount="0" stopTime="0.00" timeLoss="9.39" rerouteNo="0" devices="tripinfo_NS_324" vType="car" speedFactor="1.01" vaporized=""/>
    <tripinfo id="NS_329" depart="329.00" departLane="2i_0" departPos="4.10" departSpeed="0.00" departDelay="0.00" arrival="404.00" arrivalLane="1o_0" arrivalPos="492.80" arrivalSpeed="10.63" duration="75.00" routeLength="995.90" waitingTime="0.00" waitingCount="0" stopTime="0.00" timeLoss="8.22" rerouteNo="0" devices="tripinfo_NS_329" vType="car" speedFactor="1.06" vaporized=""/>
    <tripinfo id="WE_330" depart="330.00" departLane="1i_0" departPos="4.10" departSpeed="0.00" departDelay="0.00" arrival="413.00" arrivalLane="2o_0" arrivalPos="492.80" arrivalSpeed="9.98" duration="83.00" routeLength="995.90" waitingTime="0.00" waitingCount="0" stopTime="0.00" timeLoss="9.03" rerouteNo="0" devices="tripinfo_WE_330" vType="car" speedFactor="0.96" vaporized=""/>
    <tripinfo id="NS_341" depart="341.00" departLane="2i_0" departPos="4.10" departSpeed="0.00" departDelay="0.00" arrival="421.00" arrivalLane="1o_0" arrivalPos="492.80" arrivalSpeed="10.25" duration="80.00" routeLength="995.90" waitingTime="0.00" waitingCount="0" stopTime="0.00" timeLoss="9.59" rerouteNo="0" devices="tripinfo_NS_341" vType="car" speedFactor="1.01" vaporized=""/>
    <tripinfo id="NS_336" depart="336.00" departLane="2i_0" departPos="4.10" departSpeed="0.00" departDelay="0.00" arrival="427.00" arrivalLane="4o_0" arrivalPos="492.80" arrivalSpeed="9.56" duration="91.00" routeLength="990.53" waitingTime="0.00" waitingCount="0" stopTime="0.00" timeLoss="9.44" rerouteNo="0" devices="tripinfo_NS_336" vType="car" speedFactor="0.87" vaporized=""/>
    <tripinfo id="WE_332" depart="334.00" departLane="1i_0" departPos="10.10" departSpeed="0.00" departDelay="2.00" arrival="429.00" arrivalLane="4o_0" arrivalPos="492.80" arrivalSpeed="10.53" duration="95.00" routeLength="989.70" waitingTime="0.00" waitingCount="0" stopTime="0.00" timeLoss="22.14" rerouteNo="0" devices="tripinfo_WE_332" vType="truck" speedFactor="0.96" vaporized=""/>
    <tripinfo id="NS_359" depart="359.00" departLane="2i_0" departPos="4.10" departSpeed="0.00" departDelay="0.00" arrival="441.00" arrivalLane="3o_0" arrivalPos="492.80" arrivalSpeed="10.80" duration="82.00" routeLength="995.70" waitingTime="0.00" waitingCount="0" stopTime="0.00" timeLoss="10.76" rerouteNo="0" devices="tripinfo_NS_359" vType="car" speedFactor="1.00" vaporized=""/>
    <tripinfo id="WE_364" depart="364.00" departLane="1i_0" departPos="4.10" departSpeed="0.00" departDelay="0.00" arrival="444.00" arrivalLane="3o_0" arrivalPos="492.80" arrivalSpeed="10.31" duration="80.00" routeLength="990.53" waitingTime="0.00" waitingCount="0" stopTime="0.00" timeLoss="8.48" rerouteNo="0" devices="tripinfo_WE_364" vType="car" speedFactor="0.99" vaporized=""/>
    <tripinfo id="NS_369" depart="371.00" departLane="2i_0" departPos="4.10" departSpeed="0.00" departDelay="2.00" arrival="444.00" arrivalLane="4o_0" arrivalPos="492.80" arrivalSpeed="11.82" duration="73.00" routeLength="990.53" waitingTime="0.00" waitingCount="0" stopTime="0.00" timeLoss="7.16" rerouteNo="0" devices="tripinfo_NS_369" vType="car" speedFactor="1.07" vaporized=""/>
    <tripinfo id="WE_373" depart="373.00" departLane="1i_0" departPos="4.10" departSpeed="0.00" departDelay="0.00" arrival="446.00" arrivalLane="3o_0" arrivalPos="492.80" arrivalSpeed="12.16" duration="73.00" routeLength="990.53" waitingTime="0.00" waitingCount="0" stopTime="0.00" timeLoss="8.49" rerouteNo="0" devices="tripinfo_WE_373" vType="car" speedFactor="1.10" vaporized=""/>