<?xml version="1.0" encoding="UTF-8"?>

<!-- generated on 2024-05-05 23:13:40 by Eclipse SUMO sumo Version 1.19.0
<configuration xmlns:xsi="http://www.w3.org/2001/XMLSchema-instance" xsi:noNamespaceSchemaLocation="http://sumo.dlr.de/xsd/sumoConfiguration.xsd">

    <input>
        <net-file value="twoone.net.xml"/>
        <route-files value="route_gen.rou.xml"/>
    </input>

    <output>
        <tripinfo-output value="tripinfo_epi493.xml"/>
    </output>

    <report>
        <no-warnings value="true"/>
    </report>

    <traci_server>
        <remote-port value="45347"/>
    </traci_server>

</configuration>
-->

<tripinfos xmlns:xsi="http://www.w3.org/2001/XMLSchema-instance" xsi:noNamespaceSchemaLocation="http://sumo.dlr.de/xsd/tripinfo_file.xsd">
    <tripinfo id="EW_2" depart="2.00" departLane="4i_0" departPos="4.10" departSpeed="0.00" departDelay="0.00" arrival="88.00" arrivalLane="3o_0" arrivalPos="492.80" arrivalSpeed="9.73" duration="86.00" routeLength="995.90" waitingTime="0.00" waitingCount="0" stopTime="0.00" timeLoss="10.04" rerouteNo="0" devices="tripinfo_EW_2" vType="car" speedFactor="0.94" vaporized=""/>
    <tripinfo id="NS_6" depart="6.00" departLane="2i_0" departPos="10.10" departSpeed="0.00" departDelay="0.00" arrival="88.00" arrivalLane="4o_0" arrivalPos="492.80" arrivalSpeed="11.03" duration="82.00" routeLength="984.53" waitingTime="0.00" waitingCount="0" stopTime="0.00" timeLoss="11.71" rerouteNo="0" devices="tripinfo_NS_6" vType="truck" speedFactor="1.01" vaporized=""/>
    <tripinfo id="NS_21" depart="21.00" departLane="2i_0" departPos="4.10" departSpeed="0.00" departDelay="0.00" arrival="99.00" arrivalLane="3o_0" arrivalPos="492.80" arrivalSpeed="10.76" duration="78.00" routeLength="995.70" waitingTime="0.00" waitingCount="0" stopTime="0.00" timeLoss="9.00" rerouteNo="0" devices="tripinfo_NS_21" vType="car" speedFactor="1.03" vaporized=""/>
    <tripinfo id="NS_12" depart="12.00" departLane="2i_0" departPos="4.10" departSpeed="0.00" departDelay="0.00" arrival="107.00" arrivalLane="1o_0" arrivalPos="492.80" arrivalSpeed="7.96" duration="95.00" routeLength="995.90" waitingTime="0.00" waitingCount="0" stopTime="0.00" timeLoss="9.78" rerouteNo="0" devices="tripinfo_NS_12" vType="car" speedFactor="0.83" vaporized=""/>
    <tripinfo id="NS_42" depart="44.00" departLane="2i_0" departPos="4.10" departSpeed="0.00" departDelay="2.00" arrival="121.00" arrivalLane="3o_0" arrivalPos="492.80" arrivalSpeed="12.27" duration="77.00" routeLength="995.70" waitingTime="0.00" waitingCount="0" stopTime="0.00" timeLoss="15.45" rerouteNo="0" devices="tripinfo_NS_42" vType="car" speedFactor="1.16" vaporized=""/>
    <tripinfo id="NS_41" depart="41.00" departLane="2i_0" departPos="4.10" departSpeed="0.00" departDelay="0.00" arrival="131.00" arrivalLane="4o_0" arrivalPos="492.80" arrivalSpeed="8.48" duration="90.00" routeLength="990.53" waitingTime="0.00" waitingCount="0" stopTime="0.00" timeLoss="10.07" rerouteNo="0" devices="tripinfo_NS_41" vType="car" speedFactor="0.88" vaporized=""/>
    <tripinfo id="NS_51" depart="51.00" departLane="2i_0" departPos="4.10" departSpeed="0.00" departDelay="0.00" arrival="133.00" arrivalLane="4o_0" arrivalPos="492.80" arrivalSpeed="10.33" duration="82.00" routeLength="990.53" waitingTime="0.00" waitingCount="0" stopTime="0.00" timeLoss="12.30" rerouteNo="0" devices="tripinfo_NS_51" vType="car" speedFactor="1.02" vaporized=""/>
    <tripinfo id="WE_10" depart="10.00" departLane="1i_0" departPos="4.10" departSpeed="0.00" departDelay="0.00" arrival="134.00" arrivalLane="3o_0" arrivalPos="492.80" arrivalSpeed="11.80" duration="124.00" routeLength="990.53" waitingTime="40.00" waitingCount="1" stopTime="0.00" timeLoss="58.39" rerouteNo="0" devices="tripinfo_WE_10" vType="car" speedFactor="1.08" vaporized=""/>
    <tripinfo id="WE_2" depart="2.00" departLane="1i_0" departPos="10.10" departSpeed="0.00" departDelay="0.00" arrival="135.00" arrivalLane="4o_0" arrivalPos="492.80" arrivalSpeed="11.11" duration="133.00" routeLength="989.70" waitingTime="41.00" waitingCount="1" stopTime="0.00" timeLoss="64.69" rerouteNo="0" devices="tripinfo_WE_2" vType="truck" speedFactor="1.03" vaporized=""/>
    <tripinfo id="WE_11" depart="12.00" departLane="1i_0" departPos="4.10" departSpeed="0.00" departDelay="1.00" arrival="137.00" arrivalLane="3o_0" arrivalPos="492.80" arrivalSpeed="11.29" duration="125.00" routeLength="990.53" waitingTime="39.00" waitingCount="1" stopTime="0.00" timeLoss="56.89" rerouteNo="0" devices="tripinfo_WE_11" vType="car" speedFactor="1.03" vaporized=""/>
    <tripinfo id="WE_13" depart="15.00" departLane="1i_0" departPos="4.10" departSpeed="0.00" departDelay="2.00" arrival="139.00" arrivalLane="3o_0" arrivalPos="492.80" arrivalSpeed="11.36" duration="124.00" routeLength="990.53" waitingTime="38.00" waitingCount="1" stopTime="0.00" timeLoss="56.78" rerouteNo="0" devices="tripinfo_WE_13" vType="car" speedFactor="1.05" vaporized=""/>
    <tripinfo id="WE_33" depart="33.00" departLane="1i_0" departPos="10.10" departSpeed="0.00" departDelay="0.00" arrival="143.00" arrivalLane="2o_0" arrivalPos="492.80" arrivalSpeed="10.86" duration="110.00" routeLength="989.90" waitingTime="14.00" waitingCount="1" stopTime="0.00" timeLoss="40.57" rerouteNo="0" devices="tripinfo_WE_33" vType="truck" speedFactor="1.02" vaporized=""/>
    <tripinfo id="WE_40" depart="40.00" departLane="1i_0" departPos="4.10" departSpeed="0.00" departDelay="0.00" arrival="147.00" arrivalLane="2o_0" arrivalPos="492.80" arrivalSpeed="10.66" duration="107.00" routeLength="995.90" waitingTime="14.00" waitingCount="1" stopTime="0.00" timeLoss="35.30" rerouteNo="0" devices="tripinfo_WE_40" vType="car" speedFactor="0.99" vaporized=""/>
    <tripinfo id="WE_42" depart="43.00" departLane="1i_0" departPos="4.10" departSpeed="0.00" departDelay="1.00" arrival="152.00" arrivalLane="3o_0" arrivalPos="492.80" arrivalSpeed="9.46" duration="109.00" routeLength="990.53" waitingTime="13.00" waitingCount="1" stopTime="0.00" timeLoss="33.70" rerouteNo="0" devices="tripinfo_WE_42" vType="car" speedFactor="0.94" vaporized=""/>
    <tripinfo id="WE_64" depart="64.00" departLane="1i_0" departPos="4.10" departSpeed="0.00" departDelay="0.00" arrival="156.00" arrivalLane="2o_0" arrivalPos="492.80" arrivalSpeed="9.89" duration="92.00" routeLength="995.90" waitingTime="0.00" waitingCount="0" stopTime="0.00" timeLoss="14.14" rerouteNo="0" devices="tripinfo_WE_64" vType="car" speedFactor="0.92" vaporized=""/>
    <tripinfo id="WE_69" depart="69.00" departLane="1i_0" departPos="4.10" departSpeed="0.00" departDelay="0.00" arrival="157.00" arrivalLane="2o_0" arrivalPos="492.80" arrivalSpeed="11.87" duration="88.00" routeLength="995.90" waitingTime="0.00" waitingCount="0" stopTime="0.00" timeLoss="27.67" rerouteNo="0" devices="tripinfo_WE_69" vType="car" speedFactor="1.18" vaporized=""/>
    <tripinfo id="NS_64" depart="64.00" departLane="2i_0" departPos="4.10" departSpeed="0.00" departDelay="0.00" arrival="160.00" arrivalLane="4o_0" arrivalPos="492.80" arrivalSpeed="10.08" duration="96.00" routeLength="990.53" waitingTime="8.00" waitingCount="1" stopTime="0.00" timeLoss="21.76" rerouteNo="0" devices="tripinfo_NS_64" vType="car" speedFactor="0.95" vaporized=""/>
    <tripinfo id="NS_66" depart="67.00" departLane="2i_0" departPos="4.10" departSpeed="0.00" departDelay="1.00" arrival="162.00" arrivalLane="4o_0" arrivalPos="492.80" arrivalSpeed="12.04" duration="95.00" routeLength="990.53" waitingTime="7.00" waitingCount="1" stopTime="0.00" timeLoss="32.29" rerouteNo="0" devices="tripinfo_NS_66" vType="car" speedFactor="1.13" vaporized=""/>
    <tripinfo id="NS_68" depart="70.00" departLane="2i_0" departPos="4.10" departSpeed="0.00" departDelay="2.00" arrival="165.00" arrivalLane="1o_0" arrivalPos="492.80" arrivalSpeed="9.73" duration="95.00" routeLength="995.90" waitingTime="4.00" waitingCount="1" stopTime="0.00" timeLoss="19.16" rerouteNo="0" devices="tripinfo_NS_68" vType="car" speedFactor="0.93" vaporized=""/>
    <tripinfo id="NS_57" depart="57.00" departLane="2i_0" departPos="4.10" departSpeed="0.00" departDelay="0.00" arrival="166.00" arrivalLane="3o_0" arrivalPos="492.80" arrivalSpeed="8.16" duration="109.00" routeLength="995.70" waitingTime="10.00" waitingCount="1" stopTime="0.00" timeLoss="23.28" rerouteNo="0" devices="tripinfo_NS_57" vType="car" speedFactor="0.83" vaporized=""/>
    <tripinfo id="NS_76" depart="76.00" departLane="2i_0" departPos="10.10" departSpeed="0.00" departDelay="0.00" arrival="168.00" arrivalLane="1o_0" arrivalPos="492.80" arrivalSpeed="11.47" duration="92.00" routeLength="989.90" waitingTime="0.00" waitingCount="0" stopTime="0.00" timeLoss="25.20" rerouteNo="0" devices="tripinfo_NS_76" vType="truck" speedFactor="1.09" vaporized=""/>
    <tripinfo id="NS_83" depart="83.00" departLane="2i_0" departPos="4.10" departSpeed="0.00" departDelay="0.00" arrival="170.00" arrivalLane="1o_0" arrivalPos="492.80" arrivalSpeed="12.30" duration="87.00" routeLength="995.90" waitingTime="0.00" waitingCount="0" stopTime="0.00" timeLoss="26.49" rerouteNo="0" devices="tripinfo_NS_83" vType="car" speedFactor="1.18" vaporized=""/>
    <tripinfo id="WE_82" depart="82.00" departLane="1i_0" departPos="4.10" departSpeed="0.00" departDelay="0.00" arrival="171.00" arrivalLane="4o_0" arrivalPos="492.80" arrivalSpeed="10.25" duration="89.00" routeLength="995.70" waitingTime="4.00" waitingCount="1" stopTime="0.00" timeLoss="17.53" rerouteNo="0" devices="tripinfo_WE_82" vType="car" speedFactor="0.99" vaporized=""/>
    <tripinfo id="WE_102" depart="102.00" departLane="1i_0" departPos="4.10" departSpeed="0.00" departDelay="0.00" arrival="192.00" arrivalLane="4o_0" arrivalPos="492.80" arrivalSpeed="9.79" duration="90.00" routeLength="995.70" waitingTime="0.00" waitingCount="0" stopTime="0.00" timeLoss="10.94" rerouteNo="0" devices="tripinfo_WE_102" vType="car" speedFactor="0.90" vaporized=""/>
    <tripinfo id="SN_35" depart="35.00" departLane="3i_0" departPos="10.10" departSpeed="0.00" departDelay="0.00" arrival="199.00" arrivalLane="2o_0" arrivalPos="492.80" arrivalSpeed="11.36" duration="164.00" routeLength="984.53" waitingTime="76.00" waitingCount="1" stopTime="0.00" timeLoss="97.16" rerouteNo="0" devices="tripinfo_SN_35" vType="truck" speedFactor="1.06" vaporized=""/>
    <tripinfo id="NS_108" depart="108.00" departLane="2i_0" departPos="4.10" departSpeed="0.00" departDelay="0.00" arrival="200.00" arrivalLane="1o_0" arrivalPos="492.80" arrivalSpeed="8.54" duration="92.00" routeLength="995.90" waitingTime="0.00" waitingCount="0" stopTime="0.00" timeLoss="8.99" rerouteNo="0" devices="tripinfo_NS_108" vType="car" speedFactor="0.85" vaporized=""/>
    <tripinfo id="EW_14" depart="14.00" departLane="4i_0" departPos="10.10" departSpeed="0.00" departDelay="0.00" arrival="206.00" arrivalLane="3o_0" arrivalPos="492.80" arrivalSpeed="10.19" duration="192.00" routeLength="989.90" waitingTime="96.00" waitingCount="1" stopTime="0.00" timeLoss="117.27" rerouteNo="0" devices="tripinfo_EW_14" vType="truck" speedFactor="0.94" vaporized=""/>
    <tripinfo id="WE_105" depart="105.00" departLane="1i_0" departPos="4.10" departSpeed="0.00" departDelay="0.00" arrival="209.00" arrivalLane="4o_0" arrivalPos="492.80" arrivalSpeed="8.76" duration="104.00" routeLength="995.70" waitingTime="7.00" waitingCount="1" stopTime="0.00" timeLoss="20.23" rerouteNo="0" devices="tripinfo_WE_105" vType="car" speedFactor="0.85" vaporized=""/>
    <tripinfo id="EW_15" depart="18.00" departLane="4i_0" departPos="4.10" departSpeed="0.00" departDelay="3.00" arrival="211.00" arrivalLane="1o_0" arrivalPos="492.80" arrivalSpeed="10.10" duration="193.00" routeLength="990.53" waitingTime="94.00" waitingCount="1" stopTime="0.00" timeLoss="118.06" rerouteNo="0" devices="tripinfo_EW_15" vType="car" speedFactor="0.94" vaporized=""/>
    <tripinfo id="NS_124" depart="124.00" departLane="2i_0" departPos="4.10" departSpeed="0.00" departDelay="0.00" arrival="211.00" arrivalLane="4o_0" arrivalPos="492.80" arrivalSpeed="8.70" duration="87.00" routeLength="990.53" waitingTime="0.00" waitingCount="0" stopTime="0.00" timeLoss="8.29" rerouteNo="0" devices="tripinfo_NS_124" vType="car" speedFactor="0.90" vaporized=""/>
    <tripinfo id="WE_124" depart="124.00" departLane="1i_0" departPos="4.10" departSpeed="0.00" departDelay="0.00" arrival="213.00" arrivalLane="4o_0" arrivalPos="492.80" arrivalSpeed="9.89" duration="89.00" routeLength="995.70" waitingTime="0.00" waitingCount="0" stopTime="0.00" timeLoss="17.56" rerouteNo="0" devices="tripinfo_WE_124" vType="car" speedFactor="1.00" vaporized=""/>
    <tripinfo id="SN_41" depart="41.00" departLane="3i_0" departPos="4.10" departSpeed="0.00" departDelay="0.00" arrival="215.00" arrivalLane="4o_0" arrivalPos="492.80" arrivalSpeed="9.80" duration="174.00" routeLength="995.90" waitingTime="76.00" waitingCount="2" stopTime="0.00" timeLoss="98.57" rerouteNo="0" devices="tripinfo_SN_41" vType="car" speedFactor="0.94" vaporized=""/>
    <tripinfo id="SN_55" depart="55.00" departLane="3i_0" departPos="4.10" departSpeed="0.00" departDelay="0.00" arrival="217.00" arrivalLane="2o_0" arrivalPos="492.80" arrivalSpeed="10.59" duration="162.00" routeLength="990.53" waitingTime="66.00" waitingCount="2" stopTime="0.00" timeLoss="92.26" rerouteNo="0" devices="tripinfo_SN_55" vType="car" speedFactor="1.01" vaporized=""/>
    <tripinfo id="EW_19" depart="20.00" departLane="4i_0" departPos="4.10" departSpeed="0.00" departDelay="1.00" arrival="219.00" arrivalLane="1o_0" arrivalPos="492.80" arrivalSpeed="8.22" duration="199.00" routeLength="990.53" waitingTime="94.00" waitingCount="1" stopTime="0.00" timeLoss="116.52" rerouteNo="0" devices="tripinfo_EW_19" vType="car" speedFactor="0.86" vaporized=""/>
    <tripinfo id="EW_20" depart="23.00" departLane="4i_0" departPos="4.10" departSpeed="0.00" departDelay="3.00" arrival="219.00" arrivalLane="2o_0" arrivalPos="492.80" arrivalSpeed="11.16" duration="196.00" routeLength="995.70" waitingTime="94.00" waitingCount="2" stopTime="0.00" timeLoss="130.81" rerouteNo="0" devices="tripinfo_EW_20" vType="car" speedFactor="1.09" vaporized=""/>
    <tripinfo id="WE_141" depart="141.00" departLane="1i_0" departPos="10.10" departSpeed="0.00" departDelay="0.00" arrival="228.00" arrivalLane="4o_0" arrivalPos="492.80" arrivalSpeed="10.92" duration="87.00" routeLength="989.70" waitingTime="0.00" waitingCount="0" stopTime="0.00" timeLoss="17.06" rerouteNo="0" devices="tripinfo_WE_141" vType="truck" speedFactor="1.01" vaporized=""/>
    <tripinfo id="WE_149" depart="149.00" departLane="1i_0" departPos="4.10" departSpeed="0.00" departDelay="0.00" arrival="229.00" arrivalLane="3o_0" arrivalPos="492.80" arrivalSpeed="11.43" duration="80.00" routeLength="990.53" waitingTime="0.00" waitingCount="0" stopTime="0.00" timeLoss="16.74" rerouteNo="0" devices="tripinfo_WE_149" vType="car" speedFactor="1.12" vaporized=""/>
    <tripinfo id="WE_144" depart="145.00" departLane="1i_0" departPos="4.10" departSpeed="0.00" departDelay="1.00" arrival="234.00" arrivalLane="4o_0" arrivalPos="492.80" arrivalSpeed="10.28" duration="89.00" routeLength="995.70" waitingTime="0.00" waitingCount="0" stopTime="0.00" timeLoss="15.52" rerouteNo="0" devices="tripinfo_WE_144" vType="car" speedFactor="0.97" vaporized=""/>
    <tripinfo id="NS_155" depart="157.00" departLane="2i_0" departPos="4.10" departSpeed="0.00" departDelay="2.00" arrival="241.00" arrivalLane="1o_0" arrivalPos="492.80" arrivalSpeed="9.34" duration="84.00" routeLength="995.90" waitingTime="0.00" waitingCount="0" stopTime="0.00" timeLoss="8.01" rerouteNo="0" devices="tripinfo_NS_155" vType="car" speedFactor="0.94" vaporized=""/>
    <tripinfo id="EW_41" depart="41.00" departLane="4i_0" departPos="4.10" departSpeed="0.00" departDelay="0.00" arrival="245.00" arrivalLane="2o_0" arrivalPos="492.80" arrivalSpeed="9.38" duration="204.00" routeLength="995.70" waitingTime="97.00" waitingCount="2" stopTime="0.00" timeLoss="127.30" rerouteNo="0" devices="tripinfo_EW_41" vType="car" speedFactor="0.93" vaporized=""/>
    <tripinfo id="EW_56" depart="56.00" departLane="4i_0" departPos="4.10" departSpeed="0.00" departDelay="0.00" arrival="245.00" arrivalLane="3o_0" arrivalPos="492.80" arrivalSpeed="10.23" duration="189.00" routeLength="995.90" waitingTime="82.00" waitingCount="2" stopTime="0.00" timeLoss="115.99" rerouteNo="0" devices="tripinfo_EW_56" vType="car" speedFactor="0.97" vaporized=""/>
    <tripinfo id="EW_82" depart="82.00" departLane="4i_0" departPos="4.10" departSpeed="0.00" departDelay="0.00" arrival="245.00" arrivalLane="1o_0" arrivalPos="492.80" arrivalSpeed="10.60" duration="163.00" routeLength="990.53" waitingTime="61.00" waitingCount="2" stopTime="0.00" timeLoss="94.10" rerouteNo="0" devices="tripinfo_EW_82" vType="car" speedFactor="1.02" vaporized=""/>
    <tripinfo id="EW_71" depart="71.00" departLane="4i_0" departPos="4.10" departSpeed="0.00" departDelay="0.00" arrival="247.00" arrivalLane="3o_0" arrivalPos="492.80" arrivalSpeed="10.12" duration="176.00" routeLength="995.90" waitingTime="69.00" waitingCount="2" stopTime="0.00" timeLoss="104.95" rerouteNo="0" devices="tripinfo_EW_71" vType="car" speedFactor="1.01" vaporized=""/>
    <tripinfo id="SN_56" depart="58.00" departLane="3i_0" departPos="10.10" departSpeed="0.00" departDelay="2.00" arrival="248.00" arrivalLane="4o_0" arrivalPos="492.80" arrivalSpeed="10.22" duration="190.00" routeLength="989.90" waitingTime="77.00" waitingCount="4" stopTime="0.00" timeLoss="115.30" rerouteNo="0" devices="tripinfo_SN_56" vType="truck" speedFactor="0.94" vaporized=""/>
    <tripinfo id="EW_89" depart="90.00" departLane="4i_0" departPos="4.10" departSpeed="0.00" departDelay="1.00" arrival="248.00" arrivalLane="2o_0" arrivalPos="492.80" arrivalSpeed="12.22" duration="158.00" routeLength="995.70" waitingTime="52.00" waitingCount="3" stopTime="0.00" timeLoss="93.21" rerouteNo="0" devices="tripinfo_EW_89" vType="car" speedFactor="1.10" vaporized=""/>
    <tripinfo id="EW_83" depart="88.00" departLane="4i_0" departPos="4.10" departSpeed="0.00" departDelay="5.00" arrival="250.00" arrivalLane="3o_0" arrivalPos="492.80" arrivalSpeed="9.69" duration="162.00" routeLength="995.90" waitingTime="53.00" waitingCount="2" stopTime="0.00" timeLoss="89.11" rerouteNo="0" devices="tripinfo_EW_83" vType="car" speedFactor="0.97" vaporized=""/>
    <tripinfo id="WE_161" depart="161.00" departLane="1i_0" departPos="4.10" departSpeed="0.00" departDelay="0.00" arrival="258.00" arrivalLane="3o_0" arrivalPos="492.80" arrivalSpeed="9.16" duration="97.00" routeLength="990.53" waitingTime="3.00" waitingCount="1" stopTime="0.00" timeLoss="16.66" rerouteNo="0" devices="tripinfo_WE_161" vType="car" speedFactor="0.88" vaporized=""/>
    <tripinfo id="SN_69" depart="69.00" departLane="3i_0" departPos="10.10" departSpeed="0.00" departDelay="0.00" arrival="259.00" arrivalLane="2o_0" arrivalPos="492.80" arrivalSpeed="11.48" duration="190.00" routeLength="984.53" waitingTime="70.00" waitingCount="5" stopTime="0.00" timeLoss="123.98" rerouteNo="0" devices="tripinfo_SN_69" vType="truck" speedFactor="1.08" vaporized=""/>
    <tripinfo id="WE_164" depart="165.00" departLane="1i_0" departPos="4.10" departSpeed="0.00" departDelay="1.00" arrival="260.00" arrivalLane="3o_0" arrivalPos="492.80" arrivalSpeed="9.00" duration="95.00" routeLength="990.53" waitingTime="0.00" waitingCount="0" stopTime="0.00" timeLoss="16.74" rerouteNo="0" devices="tripinfo_WE_164" vType="car" speedFactor="0.91" vaporized=""/>
    <tripinfo id="SN_59" depart="62.00" departLane="3i_0" departPos="4.10" departSpeed="0.00" departDelay="3.00" arrival="262.00" arrivalLane="1o_0" arrivalPos="492.80" arrivalSpeed="9.58" duration="200.00" routeLength="995.70" waitingTime="76.00" waitingCount="6" stopTime="0.00" timeLoss="118.44" rerouteNo="0" devices="tripinfo_SN_59" vType="car" speedFactor="0.87" vaporized=""/>
    <tripinfo id="WE_165" depart="170.00" departLane="1i_0" departPos="4.10" departSpeed="0.00" departDelay="5.00" arrival="262.00" arrivalLane="3o_0" arrivalPos="492.80" arrivalSpeed="9.18" duration="92.00" routeLength="990.53" waitingTime="0.00" waitingCount="0" stopTime="0.00" timeLoss="14.22" rerouteNo="0" devices="tripinfo_WE_165" vType="car" speedFactor="0.91" vaporized=""/>
    <tripinfo id="NS_166" depart="166.00" departLane="2i_0" departPos="4.10" departSpeed="0.00" departDelay="0.00" arrival="264.00" arrivalLane="1o_0" arrivalPos="492.80" arrivalSpeed="10.65" duration="98.00" routeLength="995.90" waitingTime="5.00" waitingCount="3" stopTime="0.00" timeLoss="29.27" rerouteNo="0" devices="tripinfo_NS_166" vType="car" speedFactor="1.04" vaporized=""/>
    <tripinfo id="NS_180" depart="180.00" departLane="2i_0" departPos="4.10" departSpeed="0.00" departDelay="0.00" arrival="264.00" arrivalLane="3o_0" arrivalPos="492.80" arrivalSpeed="10.20" duration="84.00" routeLength="995.70" waitingTime="0.00" waitingCount="0" stopTime="0.00" timeLoss="10.74" rerouteNo="0" devices="tripinfo_NS_180" vType="car" speedFactor="0.97" vaporized=""/>
    <tripinfo id="NS_168" depart="169.00" departLane="2i_0" departPos="4.10" departSpeed="0.00" departDelay="1.00" arrival="265.00" arrivalLane="1o_0" arrivalPos="492.80" arrivalSpeed="11.04" duration="96.00" routeLength="995.90" waitingTime="2.00" waitingCount="2" stopTime="0.00" timeLoss="26.79" rerouteNo="0" devices="tripinfo_NS_168" vType="car" speedFactor="1.02" vaporized=""/>
    <tripinfo id="NS_182" depart="183.00" departLane="2i_0" departPos="4.10" departSpeed="0.00" departDelay="1.00" arrival="266.00" arrivalLane="3o_0" arrivalPos="492.80" arrivalSpeed="11.67" duration="83.00" routeLength="995.70" waitingTime="0.00" waitingCount="0" stopTime="0.00" timeLoss="15.26" rerouteNo="0" devices="tripinfo_NS_182" vType="car" speedFactor="1.06" vaporized=""/>
    <tripinfo id="NS_184" depart="186.00" departLane="2i_0" departPos="4.10" departSpeed="0.00" departDelay="2.00" arrival="269.00" arrivalLane="1o_0" arrivalPos="492.80" arrivalSpeed="10.41" duration="83.00" routeLength="995.90" waitingTime="0.00" waitingCount="0" stopTime="0.00" timeLoss="9.17" rerouteNo="0" devices="tripinfo_NS_184" vType="car" speedFactor="0.96" vaporized=""/>
    <tripinfo id="NS_187" depart="188.00" departLane="2i_0" departPos="4.10" departSpeed="0.00" departDelay="1.00" arrival="271.00" arrivalLane="1o_0" arrivalPos="492.80" arrivalSpeed="10.40" duration="83.00" routeLength="995.90" waitingTime="0.00" waitingCount="0" stopTime="0.00" timeLoss="11.02" rerouteNo="0" devices="tripinfo_NS_187" vType="car" speedFactor="0.98" vaporized=""/>
    <tripinfo id="NS_193" depart="193.00" departLane="2i_0" departPos="4.10" departSpeed="0.00" departDelay="0.00" arrival="273.00" arrivalLane="1o_0" arrivalPos="492.80" arrivalSpeed="11.19" duration="80.00" routeLength="995.90" waitingTime="0.00" waitingCount="0" stopTime="0.00" timeLoss="14.47" rerouteNo="0" devices="tripinfo_NS_193" vType="car" speedFactor="1.09" vaporized=""/>
    <tripinfo id="EW_90" depart="94.00" departLane="4i_0" departPos="4.10" departSpeed="0.00" departDelay="4.00" arrival="280.00" arrivalLane="1o_0" arrivalPos="492.80" arrivalSpeed="11.42" duration="186.00" routeLength="990.53" waitingTime="72.00" waitingCount="4" stopTime="0.00" timeLoss="117.51" rerouteNo="0" devices="tripinfo_EW_90" vType="car" speedFactor="1.03" vaporized=""/>
    <tripinfo id="EW_95" depart="96.00" departLane="4i_0" departPos="4.10" departSpeed="0.00" departDelay="1.00" arrival="282.00" arrivalLane="1o_0" arrivalPos="492.80" arrivalSpeed="11.36" duration="186.00" routeLength="990.53" waitingTime="68.00" waitingCount="4" stopTime="0.00" timeLoss="117.94" rerouteNo="0" devices="tripinfo_EW_95" vType="car" speedFactor="1.04" vaporized=""/>
    <tripinfo id="WE_188" depart="188.00" departLane="1i_0" departPos="4.10" departSpeed="0.00" departDelay="0.00" arrival="284.00" arrivalLane="4o_0" arrivalPos="492.80" arrivalSpeed="9.74" duration="96.00" routeLength="995.70" waitingTime="10.00" waitingCount="1" stopTime="0.00" timeLoss="23.44" rerouteNo="0" devices="tripinfo_WE_188" vType="car" speedFactor="0.98" vaporized=""/>
    <tripinfo id="EW_101" depart="101.00" departLane="4i_0" departPos="10.10" departSpeed="0.00" departDelay="0.00" arrival="287.00" arrivalLane="3o_0" arrivalPos="492.80" arrivalSpeed="10.88" duration="186.00" routeLength="989.90" waitingTime="57.00" waitingCount="3" stopTime="0.00" timeLoss="115.67" rerouteNo="0" devices="tripinfo_EW_101" vType="truck" speedFactor="1.00" vaporized=""/>
    <tripinfo id="SN_89" depart="89.00" departLane="3i_0" departPos="4.10" departSpeed="0.00" departDelay="0.00" arrival="291.00" arrivalLane="4o_0" arrivalPos="492.80" arrivalSpeed="9.58" duration="202.00" routeLength="995.90" waitingTime="69.00" waitingCount="7" stopTime="0.00" timeLoss="122.88" rerouteNo="0" devices="tripinfo_SN_89" vType="car" speedFactor="0.90" vaporized=""/>
    <tripinfo id="EW_122" depart="122.00" departLane="4i_0" departPos="4.10" departSpeed="0.00" departDelay="0.00" arrival="291.00" arrivalLane="3o_0" arrivalPos="492.80" arrivalSpeed="11.09" duration="169.00" routeLength="995.90" waitingTime="44.00" waitingCount="3" stopTime="0.00" timeLoss="98.62" rerouteNo="0" devices="tripinfo_EW_122" vType="car" speedFactor="1.00" vaporized=""/>
    <tripinfo id="SN_93" depart="93.00" departLane="3i_0" departPos="4.10" departSpeed="0.00" departDelay="0.00" arrival="292.00" arrivalLane="4o_0" arrivalPos="492.80" arrivalSpeed="9.95" duration="199.00" routeLength="995.90" waitingTime="60.00" waitingCount="4" stopTime="0.00" timeLoss="125.31" rerouteNo="0" devices="tripinfo_SN_93" vType="car" speedFactor="0.96" vaporized=""/>
    <tripinfo id="NS_201" depart="201.00" departLane="2i_0" departPos="4.10" departSpeed="0.00" departDelay="0.00" arrival="293.00" arrivalLane="3o_0" arrivalPos="492.80" arrivalSpeed="10.34" duration="92.00" routeLength="995.70" waitingTime="10.00" waitingCount="1" stopTime="0.00" timeLoss="23.65" rerouteNo="0" devices="tripinfo_NS_201" vType="car" speedFactor="1.03" vaporized=""/>
    <tripinfo id="SN_94" depart="96.00" departLane="3i_0" departPos="4.10" departSpeed="0.00" departDelay="2.00" arrival="294.00" arrivalLane="4o_0" arrivalPos="492.80" arrivalSpeed="11.60" duration="198.00" routeLength="995.90" waitingTime="57.00" waitingCount="3" stopTime="0.00" timeLoss="133.10" rerouteNo="0" devices="tripinfo_SN_94" vType="car" speedFactor="1.09" vaporized=""/>
    <tripinfo id="SN_95" depart="99.00" departLane="3i_0" departPos="4.10" departSpeed="0.00" departDelay="4.00" arrival="296.00" arrivalLane="4o_0" arrivalPos="492.80" arrivalSpeed="10.67" duration="197.00" routeLength="995.90" waitingTime="55.00" waitingCount="3" stopTime="0.00" timeLoss="129.04" rerouteNo="0" devices="tripinfo_SN_95" vType="car" speedFactor="1.04" vaporized=""/>
    <tripinfo id="WE_202" depart="202.00" departLane="1i_0" departPos="4.10" departSpeed="0.00" departDelay="0.00" arrival="297.00" arrivalLane="3o_0" arrivalPos="492.80" arrivalSpeed="11.05" duration="95.00" routeLength="990.53" waitingTime="8.00" waitingCount="2" stopTime="0.00" timeLoss="24.12" rerouteNo="0" devices="tripinfo_WE_202" vType="car" speedFactor="1.00" vaporized=""/>
    <tripinfo id="NS_202" depart="204.00" departLane="2i_0" departPos="4.10" departSpeed="0.00" departDelay="2.00" arrival="298.00" arrivalLane="4o_0" arrivalPos="492.80" arrivalSpeed="10.69" duration="94.00" routeLength="990.53" waitingTime="7.00" waitingCount="1" stopTime="0.00" timeLoss="24.42" rerouteNo="0" devices="tripinfo_NS_202" vType="car" speedFactor="1.02" vaporized=""/>
    <tripinfo id="EW_135" depart="135.00" departLane="4i_0" departPos="4.10" departSpeed="0.00" departDelay="0.00" arrival="299.00" arrivalLane="3o_0" arrivalPos="492.80" arrivalSpeed="11.81" duration="164.00" routeLength="995.90" waitingTime="38.00" waitingCount="6" stopTime="0.00" timeLoss="101.45" rerouteNo="0" devices="tripinfo_EW_135" vType="car" speedFactor="1.14" vaporized=""/>
    <tripinfo id="WE_211" depart="211.00" departLane="1i_0" departPos="4.10" departSpeed="0.00" departDelay="0.00" arrival="299.00" arrivalLane="4o_0" arrivalPos="492.80" arrivalSpeed="12.62" duration="88.00" routeLength="995.70" waitingTime="2.00" waitingCount="2" stopTime="0.00" timeLoss="26.47" rerouteNo="0" devices="tripinfo_WE_211" vType="car" speedFactor="1.15" vaporized=""/>
    <tripinfo id="NS_214" depart="214.00" departLane="2i_0" departPos="4.10" departSpeed="0.00" departDelay="0.00" arrival="299.00" arrivalLane="1o_0" arrivalPos="492.80" arrivalSpeed="10.21" duration="85.00" routeLength="995.90" waitingTime="0.00" waitingCount="0" stopTime="0.00" timeLoss="11.70" rerouteNo="0" devices="tripinfo_NS_214" vType="car" speedFactor="0.98" vaporized=""/>
    <tripinfo id="SN_96" depart="103.00" departLane="3i_0" departPos="10.10" departSpeed="0.00" departDelay="7.00" arrival="303.00" arrivalLane="4o_0" arrivalPos="492.80" arrivalSpeed="11.29" duration="200.00" routeLength="989.90" waitingTime="49.00" waitingCount="5" stopTime="0.00" timeLoss="131.71" rerouteNo="0" devices="tripinfo_SN_96" vType="truck" speedFactor="1.04" vaporized=""/>
    <tripinfo id="WE_221" depart="221.00" departLane="1i_0" departPos="4.10" departSpeed="0.00" departDelay="0.00" arrival="305.00" arrivalLane="2o_0" arrivalPos="492.80" arrivalSpeed="11.21" duration="84.00" routeLength="995.90" waitingTime="0.00" waitingCount="0" stopTime="0.00" timeLoss="16.38" rerouteNo="0" devices="tripinfo_WE_221" vType="car" speedFactor="1.04" vaporized=""/>
    <tripinfo id="NS_223" depart="223.00" departLane="2i_0" departPos="4.10" departSpeed="0.00" departDelay="0.00" arrival="308.00" arrivalLane="4o_0" arrivalPos="492.80" arrivalSpeed="9.90" duration="85.00" routeLength="990.53" waitingTime="3.00" waitingCount="1" stopTime="0.00" timeLoss="15.24" rerouteNo="0" devices="tripinfo_NS_223" vType="car" speedFactor="1.01" vaporized=""/>