<?xml version="1.0" encoding="UTF-8"?>

<!-- generated on 2024-05-05 22:56:39 by Eclipse SUMO sumo Version 1.19.0
<configuration xmlns:xsi="http://www.w3.org/2001/XMLSchema-instance" xsi:noNamespaceSchemaLocation="http://sumo.dlr.de/xsd/sumoConfiguration.xsd">

    <input>
        <net-file value="twoone.net.xml"/>
        <route-files value="route_gen.rou.xml"/>
    </input>

    <output>
        <tripinfo-output value="tripinfo_epi418.xml"/>
    </output>

    <report>
        <no-warnings value="true"/>
    </report>

    <traci_server>
        <remote-port value="39819"/>
    </traci_server>

</configuration>
-->

<tripinfos xmlns:xsi="http://www.w3.org/2001/XMLSchema-instance" xsi:noNamespaceSchemaLocation="http://sumo.dlr.de/xsd/tripinfo_file.xsd">
    <tripinfo id="NS_10" depart="10.00" departLane="2i_0" departPos="4.10" departSpeed="0.00" departDelay="0.00" arrival="85.00" arrivalLane="3o_0" arrivalPos="492.80" arrivalSpeed="11.92" duration="75.00" routeLength="995.70" waitingTime="0.00" waitingCount="0" stopTime="0.00" timeLoss="9.29" rerouteNo="0" devices="tripinfo_NS_10" vType="car" speedFactor="1.08" vaporized=""/>
    <tripinfo id="EW_1" depart="1.00" departLane="4i_0" departPos="4.10" departSpeed="0.00" departDelay="0.00" arrival="89.00" arrivalLane="1o_0" arrivalPos="492.80" arrivalSpeed="11.72" duration="88.00" routeLength="990.53" waitingTime="10.00" waitingCount="1" stopTime="0.00" timeLoss="21.04" rerouteNo="0" devices="tripinfo_EW_1" vType="car" speedFactor="1.06" vaporized=""/>
    <tripinfo id="SN_5" depart="5.00" departLane="3i_0" departPos="4.10" departSpeed="0.00" departDelay="0.00" arrival="93.00" arrivalLane="2o_0" arrivalPos="492.80" arrivalSpeed="9.86" duration="88.00" routeLength="990.53" waitingTime="1.00" waitingCount="1" stopTime="0.00" timeLoss="13.16" rerouteNo="0" devices="tripinfo_SN_5" vType="car" speedFactor="0.94" vaporized=""/>
    <tripinfo id="NS_23" depart="23.00" departLane="2i_0" departPos="4.10" departSpeed="0.00" departDelay="0.00" arrival="99.00" arrivalLane="1o_0" arrivalPos="492.80" arrivalSpeed="11.52" duration="76.00" routeLength="995.90" waitingTime="0.00" waitingCount="0" stopTime="0.00" timeLoss="8.25" rerouteNo="0" devices="tripinfo_NS_23" vType="car" speedFactor="1.05" vaporized=""/>
    <tripinfo id="SN_15" depart="15.00" departLane="3i_0" departPos="4.10" departSpeed="0.00" departDelay="0.00" arrival="104.00" arrivalLane="4o_0" arrivalPos="492.80" arrivalSpeed="10.33" duration="89.00" routeLength="995.90" waitingTime="6.00" waitingCount="1" stopTime="0.00" timeLoss="20.20" rerouteNo="0" devices="tripinfo_SN_15" vType="car" speedFactor="1.03" vaporized=""/>
    <tripinfo id="EW_10" depart="10.00" departLane="4i_0" departPos="4.10" departSpeed="0.00" departDelay="0.00" arrival="109.00" arrivalLane="2o_0" arrivalPos="492.80" arrivalSpeed="10.37" duration="99.00" routeLength="995.70" waitingTime="8.00" waitingCount="1" stopTime="0.00" timeLoss="28.29" rerouteNo="0" devices="tripinfo_EW_10" vType="car" speedFactor="1.01" vaporized=""/>
    <tripinfo id="EW_33" depart="33.00" departLane="4i_0" departPos="10.10" departSpeed="0.00" departDelay="0.00" arrival="118.00" arrivalLane="1o_0" arrivalPos="492.80" arrivalSpeed="11.12" duration="85.00" routeLength="984.53" waitingTime="0.00" waitingCount="0" stopTime="0.00" timeLoss="15.09" rerouteNo="0" devices="tripinfo_EW_33" vType="truck" speedFactor="1.01" vaporized=""/>
    <tripinfo id="WE_25" depart="25.00" departLane="1i_0" departPos="4.10" departSpeed="0.00" departDelay="0.00" arrival="119.00" arrivalLane="3o_0" arrivalPos="492.80" arrivalSpeed="9.54" duration="94.00" routeLength="990.53" waitingTime="0.00" waitingCount="0" stopTime="0.00" timeLoss="14.61" rerouteNo="0" devices="tripinfo_WE_25" vType="car" speedFactor="0.89" vaporized=""/>
    <tripinfo id="WE_21" depart="21.00" departLane="1i_0" departPos="4.10" departSpeed="0.00" departDelay="0.00" arrival="121.00" arrivalLane="2o_0" arrivalPos="492.80" arrivalSpeed="8.49" duration="100.00" routeLength="995.90" waitingTime="2.00" waitingCount="1" stopTime="0.00" timeLoss="14.55" rerouteNo="0" devices="tripinfo_WE_21" vType="car" speedFactor="0.83" vaporized=""/>
    <tripinfo id="SN_29" depart="29.00" departLane="3i_0" departPos="10.10" departSpeed="0.00" departDelay="0.00" arrival="123.00" arrivalLane="2o_0" arrivalPos="492.80" arrivalSpeed="10.36" duration="94.00" routeLength="984.53" waitingTime="3.00" waitingCount="2" stopTime="0.00" timeLoss="26.76" rerouteNo="0" devices="tripinfo_SN_29" vType="truck" speedFactor="1.05" vaporized=""/>
    <tripinfo id="NS_26" depart="26.00" departLane="2i_0" departPos="4.10" departSpeed="0.00" departDelay="0.00" arrival="124.00" arrivalLane="3o_0" arrivalPos="492.80" arrivalSpeed="9.34" duration="98.00" routeLength="995.70" waitingTime="9.00" waitingCount="1" stopTime="0.00" timeLoss="22.28" rerouteNo="0" devices="tripinfo_NS_26" vType="car" speedFactor="0.94" vaporized=""/>
    <tripinfo id="NS_28" depart="30.00" departLane="2i_0" departPos="10.10" departSpeed="0.00" departDelay="2.00" arrival="128.00" arrivalLane="4o_0" arrivalPos="492.80" arrivalSpeed="9.89" duration="98.00" routeLength="984.53" waitingTime="0.00" waitingCount="0" stopTime="0.00" timeLoss="22.68" rerouteNo="0" devices="tripinfo_NS_28" vType="truck" speedFactor="0.93" vaporized=""/>
    <tripinfo id="NS_43" depart="43.00" departLane="2i_0" departPos="4.10" departSpeed="0.00" departDelay="0.00" arrival="129.00" arrivalLane="3o_0" arrivalPos="492.80" arrivalSpeed="10.11" duration="86.00" routeLength="995.70" waitingTime="0.00" waitingCount="0" stopTime="0.00" timeLoss="14.06" rerouteNo="0" devices="tripinfo_NS_43" vType="car" speedFactor="0.99" vaporized=""/>
    <tripinfo id="SN_40" depart="40.00" departLane="3i_0" departPos="4.10" departSpeed="0.00" departDelay="0.00" arrival="141.00" arrivalLane="2o_0" arrivalPos="492.80" arrivalSpeed="10.45" duration="101.00" routeLength="990.53" waitingTime="14.00" waitingCount="1" stopTime="0.00" timeLoss="33.88" rerouteNo="0" devices="tripinfo_SN_40" vType="car" speedFactor="1.05" vaporized=""/>
    <tripinfo id="NS_61" depart="61.00" departLane="2i_0" departPos="4.10" departSpeed="0.00" departDelay="0.00" arrival="142.00" arrivalLane="1o_0" arrivalPos="492.80" arrivalSpeed="10.22" duration="81.00" routeLength="995.90" waitingTime="0.00" waitingCount="0" stopTime="0.00" timeLoss="8.01" rerouteNo="0" devices="tripinfo_NS_61" vType="car" speedFactor="0.97" vaporized=""/>
    <tripinfo id="WE_53" depart="53.00" departLane="1i_0" departPos="4.10" departSpeed="0.00" departDelay="0.00" arrival="143.00" arrivalLane="3o_0" arrivalPos="492.80" arrivalSpeed="8.87" duration="90.00" routeLength="990.53" waitingTime="0.00" waitingCount="0" stopTime="0.00" timeLoss="9.42" rerouteNo="0" devices="tripinfo_WE_53" vType="car" speedFactor="0.88" vaporized=""/>
    <tripinfo id="WE_57" depart="57.00" departLane="1i_0" departPos="4.10" departSpeed="0.00" departDelay="0.00" arrival="148.00" arrivalLane="4o_0" arrivalPos="492.80" arrivalSpeed="9.19" duration="91.00" routeLength="995.70" waitingTime="2.00" waitingCount="1" stopTime="0.00" timeLoss="15.14" rerouteNo="0" devices="tripinfo_WE_57" vType="car" speedFactor="0.94" vaporized=""/>
    <tripinfo id="WE_86" depart="86.00" departLane="1i_0" departPos="4.10" departSpeed="0.00" departDelay="0.00" arrival="157.00" arrivalLane="3o_0" arrivalPos="492.80" arrivalSpeed="11.80" duration="71.00" routeLength="990.53" waitingTime="0.00" waitingCount="0" stopTime="0.00" timeLoss="8.43" rerouteNo="0" devices="tripinfo_WE_86" vType="car" speedFactor="1.13" vaporized=""/>
    <tripinfo id="NS_69" depart="69.00" departLane="2i_0" departPos="4.10" departSpeed="0.00" departDelay="0.00" arrival="158.00" arrivalLane="1o_0" arrivalPos="492.80" arrivalSpeed="9.03" duration="89.00" routeLength="995.90" waitingTime="0.00" waitingCount="0" stopTime="0.00" timeLoss="8.18" rerouteNo="0" devices="tripinfo_NS_69" vType="car" speedFactor="0.87" vaporized=""/>
    <tripinfo id="NS_83" depart="83.00" departLane="2i_0" departPos="4.10" departSpeed="0.00" departDelay="0.00" arrival="168.00" arrivalLane="3o_0" arrivalPos="492.80" arrivalSpeed="9.80" duration="85.00" routeLength="995.70" waitingTime="0.00" waitingCount="0" stopTime="0.00" timeLoss="10.11" rerouteNo="0" devices="tripinfo_NS_83" vType="car" speedFactor="0.95" vaporized=""/>
    <tripinfo id="NS_88" depart="88.00" departLane="2i_0" departPos="4.10" departSpeed="0.00" departDelay="0.00" arrival="170.00" arrivalLane="3o_0" arrivalPos="492.80" arrivalSpeed="11.86" duration="82.00" routeLength="995.70" waitingTime="0.00" waitingCount="0" stopTime="0.00" timeLoss="21.43" rerouteNo="0" devices="tripinfo_NS_88" vType="car" speedFactor="1.18" vaporized=""/>
    <tripinfo id="NS_106" depart="106.00" departLane="2i_0" departPos="4.10" departSpeed="0.00" departDelay="0.00" arrival="178.00" arrivalLane="4o_0" arrivalPos="492.80" arrivalSpeed="11.63" duration="72.00" routeLength="990.53" waitingTime="0.00" waitingCount="0" stopTime="0.00" timeLoss="7.64" rerouteNo="0" devices="tripinfo_NS_106" vType="car" speedFactor="1.10" vaporized=""/>
    <tripinfo id="NS_115" depart="115.00" departLane="2i_0" departPos="4.10" departSpeed="0.00" departDelay="0.00" arrival="198.00" arrivalLane="3o_0" arrivalPos="492.80" arrivalSpeed="10.33" duration="83.00" routeLength="995.70" waitingTime="0.00" waitingCount="0" stopTime="0.00" timeLoss="8.79" rerouteNo="0" devices="tripinfo_NS_115" vType="car" speedFactor="0.96" vaporized=""/>
    <tripinfo id="NS_117" depart="118.00" departLane="2i_0" departPos="4.10" departSpeed="0.00" departDelay="1.00" arrival="200.00" arrivalLane="3o_0" arrivalPos="492.80" arrivalSpeed="11.58" duration="82.00" routeLength="995.70" waitingTime="0.00" waitingCount="0" stopTime="0.00" timeLoss="16.58" rerouteNo="0" devices="tripinfo_NS_117" vType="car" speedFactor="1.09" vaporized=""/>
    <tripinfo id="WE_124" depart="124.00" departLane="1i_0" departPos="10.10" departSpeed="0.00" departDelay="0.00" arrival="205.00" arrivalLane="2o_0" arrivalPos="492.80" arrivalSpeed="11.45" duration="81.00" routeLength="989.90" waitingTime="0.00" waitingCount="0" stopTime="0.00" timeLoss="12.98" rerouteNo="0" devices="tripinfo_WE_124" vType="truck" speedFactor="1.04" vaporized=""/>
    <tripinfo id="WE_125" depart="128.00" departLane="1i_0" departPos="4.10" departSpeed="0.00" departDelay="3.00" arrival="211.00" arrivalLane="2o_0" arrivalPos="492.80" arrivalSpeed="10.57" duration="83.00" routeLength="995.90" waitingTime="0.00" waitingCount="0" stopTime="0.00" timeLoss="11.96" rerouteNo="0" devices="tripinfo_WE_125" vType="car" speedFactor="1.00" vaporized=""/>
    <tripinfo id="NS_130" depart="130.00" departLane="2i_0" departPos="4.10" departSpeed="0.00" departDelay="0.00" arrival="219.00" arrivalLane="3o_0" arrivalPos="492.80" arrivalSpeed="9.66" duration="89.00" routeLength="995.70" waitingTime="0.00" waitingCount="0" stopTime="0.00" timeLoss="9.68" rerouteNo="0" devices="tripinfo_NS_130" vType="car" speedFactor="0.90" vaporized=""/>
    <tripinfo id="NS_147" depart="147.00" departLane="2i_0" departPos="4.10" departSpeed="0.00" departDelay="0.00" arrival="227.00" arrivalLane="4o_0" arrivalPos="492.80" arrivalSpeed="10.96" duration="80.00" routeLength="990.53" waitingTime="0.00" waitingCount="0" stopTime="0.00" timeLoss="9.37" rerouteNo="0" devices="tripinfo_NS_147" vType="car" speedFactor="1.00" vaporized=""/>
    <tripinfo id="NS_138" depart="138.00" departLane="2i_0" departPos="4.10" departSpeed="0.00" departDelay="0.00" arrival="230.00" arrivalLane="1o_0" arrivalPos="492.80" arrivalSpeed="9.26" duration="92.00" routeLength="995.90" waitingTime="0.00" waitingCount="0" stopTime="0.00" timeLoss="8.56" rerouteNo="0" devices="tripinfo_NS_138" vType="car" speedFactor="0.85" vaporized=""/>
    <tripinfo id="NS_142" depart="142.00" departLane="2i_0" departPos="4.10" departSpeed="0.00" departDelay="0.00" arrival="231.00" arrivalLane="1o_0" arrivalPos="492.80" arrivalSpeed="11.59" duration="89.00" routeLength="995.90" waitingTime="0.00" waitingCount="0" stopTime="0.00" timeLoss="28.44" rerouteNo="0" devices="tripinfo_NS_142" vType="car" speedFactor="1.17" vaporized=""/>
    <tripinfo id="NS_161" depart="161.00" departLane="2i_0" departPos="4.10" departSpeed="0.00" departDelay="0.00" arrival="234.00" arrivalLane="4o_0" arrivalPos="492.80" arrivalSpeed="11.80" duration="73.00" routeLength="990.53" waitingTime="0.00" waitingCount="0" stopTime="0.00" timeLoss="7.48" rerouteNo="0" devices="tripinfo_NS_161" vType="car" speedFactor="1.08" vaporized=""/>
    <tripinfo id="NS_163" depart="163.00" departLane="2i_0" departPos="4.10" departSpeed="0.00" departDelay="0.00" arrival="241.00" arrivalLane="1o_0" arrivalPos="492.80" arrivalSpeed="10.25" duration="78.00" routeLength="995.90" waitingTime="0.00" waitingCount="0" stopTime="0.00" timeLoss="8.43" rerouteNo="0" devices="tripinfo_NS_163" vType="car" speedFactor="1.02" vaporized=""/>
    <tripinfo id="WE_163" depart="163.00" departLane="1i_0" departPos="4.10" departSpeed="0.00" departDelay="0.00" arrival="253.00" arrivalLane="3o_0" arrivalPos="492.80" arrivalSpeed="11.49" duration="90.00" routeLength="990.53" waitingTime="5.00" waitingCount="1" stopTime="0.00" timeLoss="26.98" rerouteNo="0" devices="tripinfo_WE_163" vType="car" speedFactor="1.12" vaporized=""/>
    <tripinfo id="WE_152" depart="152.00" departLane="1i_0" departPos="4.10" departSpeed="0.00" departDelay="0.00" arrival="255.00" arrivalLane="2o_0" arrivalPos="492.80" arrivalSpeed="10.73" duration="103.00" routeLength="995.90" waitingTime="10.00" waitingCount="1" stopTime="0.00" timeLoss="31.79" rerouteNo="0" devices="tripinfo_WE_152" vType="car" speedFactor="1.00" vaporized=""/>
    <tripinfo id="WE_135" depart="135.00" departLane="1i_0" departPos="4.10" departSpeed="0.00" departDelay="0.00" arrival="256.00" arrivalLane="4o_0" arrivalPos="492.80" arrivalSpeed="8.90" duration="121.00" routeLength="995.70" waitingTime="22.00" waitingCount="1" stopTime="0.00" timeLoss="37.28" rerouteNo="0" devices="tripinfo_WE_135" vType="car" speedFactor="0.85" vaporized=""/>
    <tripinfo id="WE_145" depart="145.00" departLane="1i_0" departPos="10.10" departSpeed="0.00" departDelay="0.00" arrival="258.00" arrivalLane="4o_0" arrivalPos="492.80" arrivalSpeed="10.29" duration="113.00" routeLength="989.70" waitingTime="13.00" waitingCount="1" stopTime="0.00" timeLoss="43.01" rerouteNo="0" devices="tripinfo_WE_145" vType="truck" speedFactor="1.01" vaporized=""/>
    <tripinfo id="WE_160" depart="160.00" departLane="1i_0" departPos="4.10" departSpeed="0.00" departDelay="0.00" arrival="259.00" arrivalLane="2o_0" arrivalPos="492.80" arrivalSpeed="9.56" duration="99.00" routeLength="995.90" waitingTime="6.00" waitingCount="1" stopTime="0.00" timeLoss="25.44" rerouteNo="0" devices="tripinfo_WE_160" vType="car" speedFactor="0.97" vaporized=""/>
    <tripinfo id="WE_146" depart="149.00" departLane="1i_0" departPos="4.10" departSpeed="0.00" departDelay="3.00" arrival="260.00" arrivalLane="4o_0" arrivalPos="492.80" arrivalSpeed="11.80" duration="111.00" routeLength="995.70" waitingTime="12.00" waitingCount="1" stopTime="0.00" timeLoss="46.37" rerouteNo="0" devices="tripinfo_WE_146" vType="car" speedFactor="1.10" vaporized=""/>
    <tripinfo id="WE_185" depart="185.00" departLane="1i_0" departPos="4.10" departSpeed="0.00" departDelay="0.00" arrival="261.00" arrivalLane="3o_0" arrivalPos="492.80" arrivalSpeed="11.18" duration="76.00" routeLength="990.53" waitingTime="0.00" waitingCount="0" stopTime="0.00" timeLoss="8.13" rerouteNo="0" devices="tripinfo_WE_185" vType="car" speedFactor="1.04" vaporized=""/>
    <tripinfo id="WE_168" depart="168.00" departLane="1i_0" departPos="4.10" departSpeed="0.00" departDelay="0.00" arrival="264.00" arrivalLane="2o_0" arrivalPos="492.80" arrivalSpeed="9.60" duration="96.00" routeLength="995.90" waitingTime="1.00" waitingCount="1" stopTime="0.00" timeLoss="20.69" rerouteNo="0" devices="tripinfo_WE_168" vType="car" speedFactor="0.94" vaporized=""/>
    <tripinfo id="WE_191" depart="191.00" departLane="1i_0" departPos="4.10" departSpeed="0.00" departDelay="0.00" arrival="269.00" arrivalLane="4o_0" arrivalPos="492.80" arrivalSpeed="10.83" duration="78.00" routeLength="995.70" waitingTime="0.00" waitingCount="0" stopTime="0.00" timeLoss="10.34" rerouteNo="0" devices="tripinfo_WE_191" vType="car" speedFactor="1.06" vaporized=""/>
    <tripinfo id="NS_175" depart="175.00" departLane="2i_0" departPos="4.10" departSpeed="0.00" departDelay="0.00" arrival="272.00" arrivalLane="3o_0" arrivalPos="492.80" arrivalSpeed="9.45" duration="97.00" routeLength="995.70" waitingTime="6.00" waitingCount="1" stopTime="0.00" timeLoss="18.68" rerouteNo="0" devices="tripinfo_NS_175" vType="car" speedFactor="0.91" vaporized=""/>
    <tripinfo id="NS_185" depart="185.00" departLane="2i_0" departPos="4.10" departSpeed="0.00" departDelay="0.00" arrival="274.00" arrivalLane="3o_0" arrivalPos="492.80" arrivalSpeed="10.08" duration="89.00" routeLength="995.70" waitingTime="0.00" waitingCount="0" stopTime="0.00" timeLoss="19.24" rerouteNo="0" devices="tripinfo_NS_185" vType="car" speedFactor="1.02" vaporized=""/>
    <tripinfo id="NS_186" depart="187.00" departLane="2i_0" departPos="4.10" departSpeed="0.00" departDelay="1.00" arrival="276.00" arrivalLane="3o_0" arrivalPos="492.80" arrivalSpeed="10.74" duration="89.00" routeLength="995.70" waitingTime="0.00" waitingCount="0" stopTime="0.00" timeLoss="19.26" rerouteNo="0" devices="tripinfo_NS_186" vType="car" speedFactor="1.02" vaporized=""/>
    <tripinfo id="WE_223" depart="223.00" departLane="1i_0" departPos="4.10" departSpeed="0.00" departDelay="0.00" arrival="303.00" arrivalLane="4o_0" arrivalPos="492.80" arrivalSpeed="11.29" duration="80.00" routeLength="995.70" waitingTime="0.00" waitingCount="0" stopTime="0.00" timeLoss="10.49" rerouteNo="0" devices="tripinfo_WE_223" vType="car" speedFactor="1.02" vaporized=""/>
    <tripinfo id="NS_230" depart="231.00" departLane="2i_0" departPos="4.10" departSpeed="0.00" departDelay="1.00" arrival="311.00" arrivalLane="4o_0" arrivalPos="492.80" arrivalSpeed="10.66" duration="80.00" routeLength="990.53" waitingTime="0.00" waitingCount="0" stopTime="0.00" timeLoss="9.41" rerouteNo="0" devices="tripinfo_NS_230" vType="car" speedFactor="1.00" vaporized=""/>
    <tripinfo id="NS_228" depart="228.00" departLane="2i_0" departPos="4.10" departSpeed="0.00" departDelay="0.00" arrival="312.00" arrivalLane="3o_0" arrivalPos="492.80" arrivalSpeed="10.41" duration="84.00" routeLength="995.70" waitingTime="0.00" waitingCount="0" stopTime="0.00" timeLoss="10.78" rerouteNo="0" devices="tripinfo_NS_228" vType="car" speedFactor="0.98" vaporized=""/>
    <tripinfo id="NS_233" depart="233.00" departLane="2i_0" departPos="4.10" departSpeed="0.00" departDelay="0.00" arrival="313.00" arrivalLane="1o_0" arrivalPos="492.80" arrivalSpeed="10.76" duration="80.00" routeLength="995.90" waitingTime="0.00" waitingCount="0" stopTime="0.00" timeLoss="9.52" rerouteNo="0" devices="tripinfo_NS_233" vType="car" speedFactor="1.01" vaporized=""/>
    <tripinfo id="WE_233" depart="233.00" departLane="1i_0" departPos="10.10" departSpeed="0.00" departDelay="0.00" arrival="318.00" arrivalLane="4o_0" arrivalPos="492.80" arrivalSpeed="11.12" duration="85.00" routeLength="989.70" waitingTime="0.00" waitingCount="0" stopTime="0.00" timeLoss="15.74" rerouteNo="0" devices="tripinfo_WE_233" vType="truck" speedFactor="1.02" vaporized=""/>
    <tripinfo id="WE_235" depart="236.00" departLane="1i_0" departPos="4.10" departSpeed="0.00" departDelay="1.00" arrival="321.00" arrivalLane="2o_0" arrivalPos="492.80" arrivalSpeed="10.43" duration="85.00" routeLength="995.90" waitingTime="1.00" waitingCount="1" stopTime="0.00" timeLoss="15.63" rerouteNo="0" devices="tripinfo_WE_235" vType="car" speedFactor="1.02" vaporized=""/>
    <tripinfo id="NS_252" depart="252.00" departLane="2i_0" departPos="4.10" departSpeed="0.00" departDelay="0.00" arrival="326.00" arrivalLane="3o_0" arrivalPos="492.80" arrivalSpeed="10.94" duration="74.00" routeLength="995.70" waitingTime="0.00" waitingCount="0" stopTime="0.00" timeLoss="9.69" rerouteNo="0" devices="tripinfo_NS_252" vType="car" speedFactor="1.10" vaporized=""/>
    <tripinfo id="NS_247" depart="247.00" departLane="2i_0" departPos="4.10" departSpeed="0.00" departDelay="0.00" arrival="334.00" arrivalLane="1o_0" arrivalPos="492.80" arrivalSpeed="8.83" duration="87.00" routeLength="995.90" waitingTime="0.00" waitingCount="0" stopTime="0.00" timeLoss="8.39" rerouteNo="0" devices="tripinfo_NS_247" vType="car" speedFactor="0.91" vaporized=""/>
    <tripinfo id="NS_265" depart="265.00" departLane="2i_0" departPos="4.10" departSpeed="0.00" departDelay="0.00" arrival="348.00" arrivalLane="1o_0" arrivalPos="492.80" arrivalSpeed="10.13" duration="83.00" routeLength="995.90" waitingTime="0.00" waitingCount="0" stopTime="0.00" timeLoss="8.58" rerouteNo="0" devices="tripinfo_NS_265" vType="car" speedFactor="0.95" vaporized=""/>
    <tripinfo id="EW_41" depart="41.00" departLane="4i_0" departPos="10.10" departSpeed="0.00" departDelay="0.00" arrival="350.00" arrivalLane="2o_0" arrivalPos="492.80" arrivalSpeed="11.66" duration="309.00" routeLength="989.70" waitingTime="218.00" waitingCount="2" stopTime="0.00" timeLoss="241.78" rerouteNo="0" devices="tripinfo_EW_41" vType="truck" speedFactor="1.06" vaporized=""/>
    <tripinfo id="WE_239" depart="241.00" departLane="1i_0" departPos="4.10" departSpeed="0.00" departDelay="2.00" arrival="358.00" arrivalLane="4o_0" arrivalPos="492.80" arrivalSpeed="8.58" duration="117.00" routeLength="995.70" waitingTime="18.00" waitingCount="1" stopTime="0.00" timeLoss="32.15" rerouteNo="0" devices="tripinfo_WE_239" vType="car" speedFactor="0.83" vaporized=""/>
    <tripinfo id="SN_54" depart="54.00" departLane="3i_0" departPos="4.10" departSpeed="0.00" departDelay="0.00" arrival="360.00" arrivalLane="4o_0" arrivalPos="492.80" arrivalSpeed="9.79" duration="306.00" routeLength="995.90" waitingTime="211.00" waitingCount="3" stopTime="0.00" timeLoss="230.67" rerouteNo="0" devices="tripinfo_SN_54" vType="car" speedFactor="0.94" vaporized=""/>
    <tripinfo id="NS_278" depart="278.00" departLane="2i_0" departPos="4.10" departSpeed="0.00" departDelay="0.00" arrival="362.00" arrivalLane="4o_0" arrivalPos="492.80" arrivalSpeed="10.53" duration="84.00" routeLength="990.53" waitingTime="1.00" waitingCount="1" stopTime="0.00" timeLoss="14.65" rerouteNo="0" devices="tripinfo_NS_278" vType="car" speedFactor="1.01" vaporized=""/>
    <tripinfo id="SN_58" depart="58.00" departLane="3i_0" departPos="4.10" departSpeed="0.00" departDelay="0.00" arrival="363.00" arrivalLane="1o_0" arrivalPos="492.80" arrivalSpeed="11.21" duration="305.00" routeLength="995.70" waitingTime="209.00" waitingCount="4" stopTime="0.00" timeLoss="235.46" rerouteNo="0" devices="tripinfo_SN_58" vType="car" speedFactor="1.02" vaporized=""/>
    <tripinfo id="EW_61" depart="61.00" departLane="4i_0" departPos="4.10" departSpeed="0.00" departDelay="0.00" arrival="366.00" arrivalLane="1o_0" arrivalPos="492.80" arrivalSpeed="11.02" duration="305.00" routeLength="990.53" waitingTime="207.00" waitingCount="3" stopTime="0.00" timeLoss="234.88" rerouteNo="0" devices="tripinfo_EW_61" vType="car" speedFactor="1.01" vaporized=""/>
    <tripinfo id="EW_48" depart="48.00" departLane="4i_0" departPos="4.10" departSpeed="0.00" departDelay="0.00" arrival="367.00" arrivalLane="2o_0" arrivalPos="492.80" arrivalSpeed="9.85" duration="319.00" routeLength="995.70" waitingTime="219.00" waitingCount="3" stopTime="0.00" timeLoss="242.59" rerouteNo="0" devices="tripinfo_EW_48" vType="car" speedFactor="0.93" vaporized=""/>
    <tripinfo id="EW_58" depart="58.00" departLane="4i_0" departPos="4.10" departSpeed="0.00" departDelay="0.00" arrival="369.00" arrivalLane="2o_0" arrivalPos="492.80" arrivalSpeed="12.61" duration="311.00" routeLength="995.70" waitingTime="214.00" waitingCount="3" stopTime="0.00" timeLoss="249.30" rerouteNo="0" devices="tripinfo_EW_58" vType="car" speedFactor="1.16" vaporized=""/>
    <tripinfo id="SN_91" depart="93.00" departLane="3i_0" departPos="4.10" departSpeed="0.00" departDelay="2.00" arrival="370.00" arrivalLane="2o_0" arrivalPos="492.80" arrivalSpeed="12.18" duration="277.00" routeLength="990.53" waitingTime="181.00" waitingCount="2" stopTime="0.00" timeLoss="216.90" rerouteNo="0" devices="tripinfo_SN_91" vType="car" speedFactor="1.17" vaporized=""/>
    <tripinfo id="SN_64" depart="64.00" departLane="3i_0" departPos="4.10" departSpeed="0.00" departDelay="0.00" arrival="374.00" arrivalLane="4o_0" arrivalPos="492.80" arrivalSpeed="9.23" duration="310.00" routeLength="995.90" waitingTime="205.00" waitingCount="4" stopTime="0.00" timeLoss="230.04" rerouteNo="0" devices="tripinfo_SN_64" vType="car" speedFactor="0.89" vaporized=""/>
    <tripinfo id="SN_90" depart="90.00" departLane="3i_0" departPos="4.10" departSpeed="0.00" departDelay="0.00" arrival="376.00" arrivalLane="4o_0" arrivalPos="492.80" arrivalSpeed="10.56" duration="286.00" routeLength="995.90" waitingTime="182.00" waitingCount="2" stopTime="0.00" timeLoss="215.13" rerouteNo="0" devices="tripinfo_SN_90" vType="car" speedFactor="1.01" vaporized=""/>
    <tripinfo id="SN_97" depart="97.00" departLane="3i_0" departPos="4.10" departSpeed="0.00" departDelay="0.00" arrival="386.00" arrivalLane="1o_0" arrivalPos="492.80" arrivalSpeed="9.79" duration="289.00" routeLength="995.70" waitingTime="188.00" waitingCount="3" stopTime="0.00" timeLoss="217.91" rerouteNo="0" devices="tripinfo_SN_97" vType="car" speedFactor="0.99" vaporized=""/>
    <tripinfo id="NS_314" depart="314.00" departLane="2i_0" departPos="4.10" departSpeed="0.00" departDelay="0.00" arrival="393.00" arrivalLane="1o_0" arrivalPos="492.80" arrivalSpeed="10.94" duration="79.00" routeLength="995.90" waitingTime="0.00" waitingCount="0" stopTime="0.00" timeLoss="7.65" rerouteNo="0" devices="tripinfo_NS_314" vType="car" speedFactor="0.99" vaporized=""/>
    <tripinfo id="EW_65" depart="65.00" departLane="4i_0" departPos="4.10" departSpeed="0.00" departDelay="0.00" arrival="395.00" arrivalLane="2o_0" arrivalPos="492.80" arrivalSpeed="7.98" duration="330.00" routeLength="995.70" waitingTime="212.00" waitingCount="3" stopTime="0.00" timeLoss="244.38" rerouteNo="0" devices="tripinfo_EW_65" vType="car" speedFactor="0.83" vaporized=""/>
    <tripinfo id="WE_298" depart="298.00" departLane="1i_0" departPos="10.10" departSpeed="0.00" departDelay="0.00" arrival="395.00" arrivalLane="3o_0" arrivalPos="492.80" arrivalSpeed="10.48" duration="97.00" routeLength="984.53" waitingTime="0.00" waitingCount="0" stopTime="0.00" timeLoss="23.50" rerouteNo="0" devices="tripinfo_WE_298" vType="truck" speedFactor="0.96" vaporized=""/>
    <tripinfo id="NS_325" depart="325.00" departLane="2i_0" departPos="4.10" departSpeed="0.00" departDelay="0.00" arrival="395.00" arrivalLane="4o_0" arrivalPos="492.80" arrivalSpeed="11.81" duration="70.00" routeLength="990.53" waitingTime="0.00" waitingCount="0" stopTime="0.00" timeLoss="8.32" rerouteNo="0" devices="tripinfo_NS_325" vType="car" speedFactor="1.15" vaporized=""/>
    <tripinfo id="WE_244" depart="244.00" departLane="1i_0" departPos="4.10" departSpeed="0.00" departDelay="0.00" arrival="397.00" arrivalLane="2o_0" arrivalPos="492.80" arrivalSpeed="11.34" duration="153.00" routeLength="995.90" waitingTime="53.00" waitingCount="2" stopTime="0.00" timeLoss="87.72" rerouteNo="0" devices="tripinfo_WE_244" vType="car" speedFactor="1.09" vaporized=""/>
    <tripinfo id="WE_299" depart="302.00" departLane="1i_0" departPos="4.10" departSpeed="0.00" departDelay="3.00" arrival="397.00" arrivalLane="3o_0" arrivalPos="492.80" arrivalSpeed="11.04" duration="95.00" routeLength="990.53" waitingTime="0.00" waitingCount="0" stopTime="0.00" timeLoss="30.36" rerouteNo="0" devices="tripinfo_WE_299" vType="car" speedFactor="1.10" vaporized=""/>
    <tripinfo id="WE_273" depart="273.00" departLane="1i_0" departPos="4.10" departSpeed="0.00" departDelay="0.00" arrival="399.00" arrivalLane="2o_0" arrivalPos="492.80" arrivalSpeed="9.76" duration="126.00" routeLength="995.90" waitingTime="30.00" waitingCount="1" stopTime="0.00" timeLoss="46.19" rerouteNo="0" devices="tripinfo_WE_273" vType="car" speedFactor="0.89" vaporized=""/>
    <tripinfo id="WE_307" depart="307.00" departLane="1i_0" departPos="4.10" departSpeed="0.00" departDelay="0.00" arrival="399.00" arrivalLane="3o_0" arrivalPos="492.80" arrivalSpeed="11.70" duration="92.00" routeLength="990.53" waitingTime="0.00" waitingCount="0" stopTime="0.00" timeLoss="26.96" rerouteNo="0" devices="tripinfo_WE_307" vType="car" speedFactor="1.10" vaporized=""/>
    <tripinfo id="WE_320" depart="320.00" departLane="1i_0" departPos="4.10" departSpeed="0.00" departDelay="0.00" arrival="399.00" arrivalLane="4o_0" arrivalPos="492.80" arrivalSpeed="11.57" duration="79.00" routeLength="995.70" waitingTime="0.00" waitingCount="0" stopTime="0.00" timeLoss="14.13" rerouteNo="0" devices="tripinfo_WE_320" vType="car" speedFactor="1.10" vaporized=""/>
    <tripinfo id="WE_309" depart="310.00" departLane="1i_0" departPos="4.10" departSpeed="0.00" departDelay="1.00" arrival="400.00" arrivalLane="2o_0" arrivalPos="492.80" arrivalSpeed="11.10" duration="90.00" routeLength="995.90" waitingTime="0.00" waitingCount="0" stopTime="0.00" timeLoss="29.85" rerouteNo="0" devices="tripinfo_WE_309" vType="car" speedFactor="1.18" vaporized=""/>
    <tripinfo id="NS_332" depart="332.00" departLane="2i_0" departPos="4.10" departSpeed="0.00" departDelay="0.00" arrival="404.00" arrivalLane="4o_0" arrivalPos="492.80" arrivalSpeed="11.50" duration="72.00" routeLength="990.53" waitingTime="0.00" waitingCount="0" stopTime="0.00" timeLoss="8.63" rerouteNo="0" devices="tripinfo_NS_332" vType="car" speedFactor="1.12" vaporized=""/>