<?xml version="1.0" encoding="UTF-8"?>

<!-- generated on 2024-05-05 21:51:37 by Eclipse SUMO sumo Version 1.19.0
<configuration xmlns:xsi="http://www.w3.org/2001/XMLSchema-instance" xsi:noNamespaceSchemaLocation="http://sumo.dlr.de/xsd/sumoConfiguration.xsd">

    <input>
        <net-file value="twoone.net.xml"/>
        <route-files value="route_gen.rou.xml"/>
    </input>

    <output>
        <tripinfo-output value="tripinfo_epi131.xml"/>
    </output>

    <report>
        <no-warnings value="true"/>
    </report>

    <traci_server>
        <remote-port value="42185"/>
    </traci_server>

</configuration>
-->

<tripinfos xmlns:xsi="http://www.w3.org/2001/XMLSchema-instance" xsi:noNamespaceSchemaLocation="http://sumo.dlr.de/xsd/tripinfo_file.xsd">
    <tripinfo id="NS_7" depart="7.00" departLane="2i_0" departPos="10.10" departSpeed="0.00" departDelay="0.00" arrival="89.00" arrivalLane="4o_0" arrivalPos="492.80" arrivalSpeed="11.11" duration="82.00" routeLength="984.53" waitingTime="0.00" waitingCount="0" stopTime="0.00" timeLoss="12.00" rerouteNo="0" devices="tripinfo_NS_7" vType="truck" speedFactor="1.01" vaporized=""/>
    <tripinfo id="WE_7" depart="7.00" departLane="1i_0" departPos="4.10" departSpeed="0.00" departDelay="0.00" arrival="90.00" arrivalLane="2o_0" arrivalPos="492.80" arrivalSpeed="10.01" duration="83.00" routeLength="995.90" waitingTime="0.00" waitingCount="0" stopTime="0.00" timeLoss="7.00" rerouteNo="0" devices="tripinfo_WE_7" vType="car" speedFactor="0.94" vaporized=""/>
    <tripinfo id="NS_13" depart="13.00" departLane="2i_0" departPos="4.10" departSpeed="0.00" departDelay="0.00" arrival="90.00" arrivalLane="1o_0" arrivalPos="492.80" arrivalSpeed="11.78" duration="77.00" routeLength="995.90" waitingTime="0.00" waitingCount="0" stopTime="0.00" timeLoss="11.27" rerouteNo="0" devices="tripinfo_NS_13" vType="car" speedFactor="1.08" vaporized=""/>
    <tripinfo id="NS_18" depart="18.00" departLane="2i_0" departPos="4.10" departSpeed="0.00" departDelay="0.00" arrival="96.00" arrivalLane="3o_0" arrivalPos="492.80" arrivalSpeed="10.56" duration="78.00" routeLength="995.70" waitingTime="0.00" waitingCount="0" stopTime="0.00" timeLoss="9.28" rerouteNo="0" devices="tripinfo_NS_18" vType="car" speedFactor="1.03" vaporized=""/>
    <tripinfo id="EW_6" depart="6.00" departLane="4i_0" departPos="4.10" departSpeed="0.00" departDelay="0.00" arrival="111.00" arrivalLane="3o_0" arrivalPos="492.80" arrivalSpeed="11.69" duration="105.00" routeLength="995.90" waitingTime="25.00" waitingCount="1" stopTime="0.00" timeLoss="38.00" rerouteNo="0" devices="tripinfo_EW_6" vType="car" speedFactor="1.06" vaporized=""/>
    <tripinfo id="WE_23" depart="23.00" departLane="1i_0" departPos="4.10" departSpeed="0.00" departDelay="0.00" arrival="111.00" arrivalLane="2o_0" arrivalPos="492.80" arrivalSpeed="8.83" duration="88.00" routeLength="995.90" waitingTime="0.00" waitingCount="0" stopTime="0.00" timeLoss="8.29" rerouteNo="0" devices="tripinfo_WE_23" vType="car" speedFactor="0.89" vaporized=""/>
    <tripinfo id="WE_28" depart="28.00" departLane="1i_0" departPos="4.10" departSpeed="0.00" departDelay="0.00" arrival="114.00" arrivalLane="4o_0" arrivalPos="492.80" arrivalSpeed="10.20" duration="86.00" routeLength="995.70" waitingTime="0.00" waitingCount="0" stopTime="0.00" timeLoss="10.00" rerouteNo="0" devices="tripinfo_WE_28" vType="car" speedFactor="0.94" vaporized=""/>
    <tripinfo id="SN_19" depart="19.00" departLane="3i_0" departPos="4.10" departSpeed="0.00" departDelay="0.00" arrival="124.00" arrivalLane="4o_0" arrivalPos="492.80" arrivalSpeed="8.39" duration="105.00" routeLength="995.90" waitingTime="8.00" waitingCount="1" stopTime="0.00" timeLoss="20.01" rerouteNo="0" devices="tripinfo_SN_19" vType="car" speedFactor="0.83" vaporized=""/>
    <tripinfo id="SN_22" depart="22.00" departLane="3i_0" departPos="10.10" departSpeed="0.00" departDelay="0.00" arrival="127.00" arrivalLane="4o_0" arrivalPos="492.80" arrivalSpeed="10.89" duration="105.00" routeLength="989.90" waitingTime="6.00" waitingCount="3" stopTime="0.00" timeLoss="35.62" rerouteNo="0" devices="tripinfo_SN_22" vType="truck" speedFactor="1.02" vaporized=""/>
    <tripinfo id="WE_45" depart="45.00" departLane="1i_0" departPos="10.10" departSpeed="0.00" departDelay="0.00" arrival="128.00" arrivalLane="2o_0" arrivalPos="492.80" arrivalSpeed="11.09" duration="83.00" routeLength="989.90" waitingTime="0.00" waitingCount="0" stopTime="0.00" timeLoss="13.10" rerouteNo="0" devices="tripinfo_WE_45" vType="truck" speedFactor="1.01" vaporized=""/>
    <tripinfo id="NS_38" depart="38.00" departLane="2i_0" departPos="10.10" departSpeed="0.00" departDelay="0.00" arrival="131.00" arrivalLane="1o_0" arrivalPos="492.80" arrivalSpeed="11.35" duration="93.00" routeLength="989.90" waitingTime="4.00" waitingCount="1" stopTime="0.00" timeLoss="24.76" rerouteNo="0" devices="tripinfo_NS_38" vType="truck" speedFactor="1.05" vaporized=""/>
    <tripinfo id="NS_52" depart="52.00" departLane="2i_0" departPos="4.10" departSpeed="0.00" departDelay="0.00" arrival="137.00" arrivalLane="1o_0" arrivalPos="492.80" arrivalSpeed="10.87" duration="85.00" routeLength="995.90" waitingTime="0.00" waitingCount="0" stopTime="0.00" timeLoss="12.90" rerouteNo="0" devices="tripinfo_NS_52" vType="car" speedFactor="0.99" vaporized=""/>
    <tripinfo id="SN_28" depart="28.00" departLane="3i_0" departPos="10.10" departSpeed="0.00" departDelay="0.00" arrival="142.00" arrivalLane="2o_0" arrivalPos="492.80" arrivalSpeed="9.77" duration="114.00" routeLength="984.53" waitingTime="6.00" waitingCount="3" stopTime="0.00" timeLoss="38.11" rerouteNo="0" devices="tripinfo_SN_28" vType="truck" speedFactor="0.93" vaporized=""/>
    <tripinfo id="NS_58" depart="58.00" departLane="2i_0" departPos="4.10" departSpeed="0.00" departDelay="0.00" arrival="142.00" arrivalLane="1o_0" arrivalPos="492.80" arrivalSpeed="9.22" duration="84.00" routeLength="995.90" waitingTime="0.00" waitingCount="0" stopTime="0.00" timeLoss="8.16" rerouteNo="0" devices="tripinfo_NS_58" vType="car" speedFactor="0.94" vaporized=""/>
    <tripinfo id="WE_57" depart="57.00" departLane="1i_0" departPos="4.10" departSpeed="0.00" departDelay="0.00" arrival="146.00" arrivalLane="2o_0" arrivalPos="492.80" arrivalSpeed="9.12" duration="89.00" routeLength="995.90" waitingTime="0.00" waitingCount="0" stopTime="0.00" timeLoss="12.12" rerouteNo="0" devices="tripinfo_WE_57" vType="car" speedFactor="0.93" vaporized=""/>
    <tripinfo id="WE_60" depart="60.00" departLane="1i_0" departPos="4.10" departSpeed="0.00" departDelay="0.00" arrival="146.00" arrivalLane="4o_0" arrivalPos="492.80" arrivalSpeed="9.53" duration="86.00" routeLength="995.70" waitingTime="0.00" waitingCount="0" stopTime="0.00" timeLoss="10.35" rerouteNo="0" devices="tripinfo_WE_60" vType="car" speedFactor="0.94" vaporized=""/>
    <tripinfo id="WE_70" depart="70.00" departLane="1i_0" departPos="4.10" departSpeed="0.00" departDelay="0.00" arrival="148.00" arrivalLane="3o_0" arrivalPos="492.80" arrivalSpeed="10.66" duration="78.00" routeLength="990.53" waitingTime="0.00" waitingCount="0" stopTime="0.00" timeLoss="7.37" rerouteNo="0" devices="tripinfo_WE_70" vType="car" speedFactor="1.01" vaporized=""/>
    <tripinfo id="NS_67" depart="67.00" departLane="2i_0" departPos="4.10" departSpeed="0.00" departDelay="0.00" arrival="151.00" arrivalLane="3o_0" arrivalPos="492.80" arrivalSpeed="10.47" duration="84.00" routeLength="995.70" waitingTime="0.00" waitingCount="0" stopTime="0.00" timeLoss="13.84" rerouteNo="0" devices="tripinfo_NS_67" vType="car" speedFactor="1.02" vaporized=""/>
    <tripinfo id="NS_78" depart="78.00" departLane="2i_0" departPos="4.10" departSpeed="0.00" departDelay="0.00" arrival="159.00" arrivalLane="4o_0" arrivalPos="492.80" arrivalSpeed="9.71" duration="81.00" routeLength="990.53" waitingTime="0.00" waitingCount="0" stopTime="0.00" timeLoss="8.42" rerouteNo="0" devices="tripinfo_NS_78" vType="car" speedFactor="0.97" vaporized=""/>
    <tripinfo id="NS_86" depart="90.00" departLane="2i_0" departPos="4.10" departSpeed="0.00" departDelay="4.00" arrival="162.00" arrivalLane="4o_0" arrivalPos="492.80" arrivalSpeed="12.47" duration="72.00" routeLength="990.53" waitingTime="0.00" waitingCount="0" stopTime="0.00" timeLoss="9.38" rerouteNo="0" devices="tripinfo_NS_86" vType="car" speedFactor="1.13" vaporized=""/>
    <tripinfo id="WE_81" depart="81.00" departLane="1i_0" departPos="4.10" departSpeed="0.00" departDelay="0.00" arrival="169.00" arrivalLane="3o_0" arrivalPos="492.80" arrivalSpeed="9.00" duration="88.00" routeLength="990.53" waitingTime="0.00" waitingCount="0" stopTime="0.00" timeLoss="8.23" rerouteNo="0" devices="tripinfo_WE_81" vType="car" speedFactor="0.89" vaporized=""/>
    <tripinfo id="NS_85" depart="85.00" departLane="2i_0" departPos="4.10" departSpeed="0.00" departDelay="0.00" arrival="171.00" arrivalLane="1o_0" arrivalPos="492.80" arrivalSpeed="9.86" duration="86.00" routeLength="995.90" waitingTime="0.00" waitingCount="0" stopTime="0.00" timeLoss="8.74" rerouteNo="0" devices="tripinfo_NS_85" vType="car" speedFactor="0.92" vaporized=""/>
    <tripinfo id="NS_81" depart="81.00" departLane="2i_0" departPos="4.10" departSpeed="0.00" departDelay="0.00" arrival="173.00" arrivalLane="3o_0" arrivalPos="492.80" arrivalSpeed="8.52" duration="92.00" routeLength="995.70" waitingTime="0.00" waitingCount="0" stopTime="0.00" timeLoss="10.42" rerouteNo="0" devices="tripinfo_NS_81" vType="car" speedFactor="0.87" vaporized=""/>
    <tripinfo id="WE_86" depart="86.00" departLane="1i_0" departPos="4.10" departSpeed="0.00" departDelay="0.00" arrival="174.00" arrivalLane="4o_0" arrivalPos="492.80" arrivalSpeed="9.46" duration="88.00" routeLength="995.70" waitingTime="0.00" waitingCount="0" stopTime="0.00" timeLoss="13.41" rerouteNo="0" devices="tripinfo_WE_86" vType="car" speedFactor="0.95" vaporized=""/>
    <tripinfo id="WE_104" depart="104.00" departLane="1i_0" departPos="4.10" departSpeed="0.00" departDelay="0.00" arrival="176.00" arrivalLane="4o_0" arrivalPos="492.80" arrivalSpeed="12.76" duration="72.00" routeLength="995.70" waitingTime="0.00" waitingCount="0" stopTime="0.00" timeLoss="11.24" rerouteNo="0" devices="tripinfo_WE_104" vType="car" speedFactor="1.17" vaporized=""/>
    <tripinfo id="NS_108" depart="108.00" departLane="2i_0" departPos="4.10" departSpeed="0.00" departDelay="0.00" arrival="185.00" arrivalLane="4o_0" arrivalPos="492.80" arrivalSpeed="11.09" duration="77.00" routeLength="990.53" waitingTime="0.00" waitingCount="0" stopTime="0.00" timeLoss="8.00" rerouteNo="0" devices="tripinfo_NS_108" vType="car" speedFactor="1.02" vaporized=""/>
    <tripinfo id="NS_111" depart="111.00" departLane="2i_0" departPos="4.10" departSpeed="0.00" departDelay="0.00" arrival="192.00" arrivalLane="1o_0" arrivalPos="492.80" arrivalSpeed="10.32" duration="81.00" routeLength="995.90" waitingTime="0.00" waitingCount="0" stopTime="0.00" timeLoss="7.64" rerouteNo="0" devices="tripinfo_NS_111" vType="car" speedFactor="0.97" vaporized=""/>
    <tripinfo id="NS_113" depart="114.00" departLane="2i_0" departPos="4.10" departSpeed="0.00" departDelay="1.00" arrival="193.00" arrivalLane="1o_0" arrivalPos="492.80" arrivalSpeed="11.96" duration="79.00" routeLength="995.90" waitingTime="0.00" waitingCount="0" stopTime="0.00" timeLoss="18.70" rerouteNo="0" devices="tripinfo_NS_113" vType="car" speedFactor="1.18" vaporized=""/>
    <tripinfo id="WE_118" depart="118.00" departLane="1i_0" departPos="4.10" departSpeed="0.00" departDelay="0.00" arrival="195.00" arrivalLane="2o_0" arrivalPos="492.80" arrivalSpeed="10.30" duration="77.00" routeLength="995.90" waitingTime="0.00" waitingCount="0" stopTime="0.00" timeLoss="8.17" rerouteNo="0" devices="tripinfo_WE_118" vType="car" speedFactor="1.03" vaporized=""/>
    <tripinfo id="WE_119" depart="121.00" departLane="1i_0" departPos="4.10" departSpeed="0.00" departDelay="2.00" arrival="203.00" arrivalLane="2o_0" arrivalPos="492.80" arrivalSpeed="10.45" duration="82.00" routeLength="995.90" waitingTime="0.00" waitingCount="0" stopTime="0.00" timeLoss="7.90" rerouteNo="0" devices="tripinfo_WE_119" vType="car" speedFactor="0.96" vaporized=""/>
    <tripinfo id="NS_116" depart="116.00" departLane="2i_0" departPos="4.10" departSpeed="0.00" departDelay="0.00" arrival="204.00" arrivalLane="1o_0" arrivalPos="492.80" arrivalSpeed="8.95" duration="88.00" routeLength="995.90" waitingTime="1.00" waitingCount="1" stopTime="0.00" timeLoss="9.35" rerouteNo="0" devices="tripinfo_NS_116" vType="car" speedFactor="0.90" vaporized=""/>
    <tripinfo id="NS_128" depart="128.00" departLane="2i_0" departPos="4.10" departSpeed="0.00" departDelay="0.00" arrival="204.00" arrivalLane="4o_0" arrivalPos="492.80" arrivalSpeed="11.35" duration="76.00" routeLength="990.53" waitingTime="0.00" waitingCount="0" stopTime="0.00" timeLoss="8.09" rerouteNo="0" devices="tripinfo_NS_128" vType="car" speedFactor="1.04" vaporized=""/>
    <tripinfo id="WE_122" depart="124.00" departLane="1i_0" departPos="4.10" departSpeed="0.00" departDelay="2.00" arrival="205.00" arrivalLane="2o_0" arrivalPos="492.80" arrivalSpeed="10.68" duration="81.00" routeLength="995.90" waitingTime="0.00" waitingCount="0" stopTime="0.00" timeLoss="12.41" rerouteNo="0" devices="tripinfo_WE_122" vType="car" speedFactor="1.04" vaporized=""/>
    <tripinfo id="NS_130" depart="131.00" departLane="2i_0" departPos="4.10" departSpeed="0.00" departDelay="1.00" arrival="206.00" arrivalLane="4o_0" arrivalPos="492.80" arrivalSpeed="11.71" duration="75.00" routeLength="990.53" waitingTime="0.00" waitingCount="0" stopTime="0.00" timeLoss="9.60" rerouteNo="0" devices="tripinfo_NS_130" vType="car" speedFactor="1.09" vaporized=""/>
    <tripinfo id="NS_143" depart="143.00" departLane="2i_0" departPos="4.10" departSpeed="0.00" departDelay="0.00" arrival="221.00" arrivalLane="4o_0" arrivalPos="492.80" arrivalSpeed="10.01" duration="78.00" routeLength="990.53" waitingTime="0.00" waitingCount="0" stopTime="0.00" timeLoss="8.47" rerouteNo="0" devices="tripinfo_NS_143" vType="car" speedFactor="1.02" vaporized=""/>
    <tripinfo id="WE_137" depart="137.00" departLane="1i_0" departPos="4.10" departSpeed="0.00" departDelay="0.00" arrival="226.00" arrivalLane="3o_0" arrivalPos="492.80" arrivalSpeed="8.69" duration="89.00" routeLength="990.53" waitingTime="0.00" waitingCount="0" stopTime="0.00" timeLoss="8.26" rerouteNo="0" devices="tripinfo_WE_137" vType="car" speedFactor="0.88" vaporized=""/>
    <tripinfo id="WE_146" depart="146.00" departLane="1i_0" departPos="4.10" departSpeed="0.00" departDelay="0.00" arrival="228.00" arrivalLane="3o_0" arrivalPos="492.80" arrivalSpeed="10.07" duration="82.00" routeLength="990.53" waitingTime="0.00" waitingCount="0" stopTime="0.00" timeLoss="11.00" rerouteNo="0" devices="tripinfo_WE_146" vType="car" speedFactor="1.00" vaporized=""/>
    <tripinfo id="NS_145" depart="146.00" departLane="2i_0" departPos="4.10" departSpeed="0.00" departDelay="1.00" arrival="231.00" arrivalLane="3o_0" arrivalPos="492.80" arrivalSpeed="11.87" duration="85.00" routeLength="995.70" waitingTime="6.00" waitingCount="1" stopTime="0.00" timeLoss="19.72" rerouteNo="0" devices="tripinfo_NS_145" vType="car" speedFactor="1.10" vaporized=""/>
    <tripinfo id="NS_153" depart="153.00" departLane="2i_0" departPos="4.10" departSpeed="0.00" departDelay="0.00" arrival="232.00" arrivalLane="3o_0" arrivalPos="492.80" arrivalSpeed="11.64" duration="79.00" routeLength="995.70" waitingTime="1.00" waitingCount="1" stopTime="0.00" timeLoss="15.82" rerouteNo="0" devices="tripinfo_NS_153" vType="car" speedFactor="1.12" vaporized=""/>
    <tripinfo id="NS_154" depart="155.00" departLane="2i_0" departPos="4.10" departSpeed="0.00" departDelay="1.00" arrival="238.00" arrivalLane="4o_0" arrivalPos="492.80" arrivalSpeed="10.39" duration="83.00" routeLength="990.53" waitingTime="0.00" waitingCount="0" stopTime="0.00" timeLoss="13.22" rerouteNo="0" devices="tripinfo_NS_154" vType="car" speedFactor="1.02" vaporized=""/>
    <tripinfo id="NS_167" depart="167.00" departLane="2i_0" departPos="4.10" departSpeed="0.00" departDelay="0.00" arrival="251.00" arrivalLane="1o_0" arrivalPos="492.80" arrivalSpeed="9.34" duration="84.00" routeLength="995.90" waitingTime="0.00" waitingCount="0" stopTime="0.00" timeLoss="8.08" rerouteNo="0" devices="tripinfo_NS_167" vType="car" speedFactor="0.94" vaporized=""/>
    <tripinfo id="NS_169" depart="169.00" departLane="2i_0" departPos="4.10" departSpeed="0.00" departDelay="0.00" arrival="257.00" arrivalLane="1o_0" arrivalPos="492.80" arrivalSpeed="9.19" duration="88.00" routeLength="995.90" waitingTime="1.00" waitingCount="1" stopTime="0.00" timeLoss="9.72" rerouteNo="0" devices="tripinfo_NS_169" vType="car" speedFactor="0.91" vaporized=""/>
    <tripinfo id="NS_171" depart="173.00" departLane="2i_0" departPos="4.10" departSpeed="0.00" departDelay="2.00" arrival="259.00" arrivalLane="4o_0" arrivalPos="492.80" arrivalSpeed="9.42" duration="86.00" routeLength="990.53" waitingTime="0.00" waitingCount="0" stopTime="0.00" timeLoss="9.01" rerouteNo="0" devices="tripinfo_NS_171" vType="car" speedFactor="0.91" vaporized=""/>
    <tripinfo id="NS_179" depart="179.00" departLane="2i_0" departPos="4.10" departSpeed="0.00" departDelay="0.00" arrival="259.00" arrivalLane="3o_0" arrivalPos="492.80" arrivalSpeed="10.82" duration="80.00" routeLength="995.70" waitingTime="0.00" waitingCount="0" stopTime="0.00" timeLoss="10.81" rerouteNo="0" devices="tripinfo_NS_179" vType="car" speedFactor="1.02" vaporized=""/>
    <tripinfo id="NS_173" depart="176.00" departLane="2i_0" departPos="4.10" departSpeed="0.00" departDelay="3.00" arrival="261.00" arrivalLane="4o_0" arrivalPos="492.80" arrivalSpeed="10.56" duration="85.00" routeLength="990.53" waitingTime="0.00" waitingCount="0" stopTime="0.00" timeLoss="16.89" rerouteNo="0" devices="tripinfo_NS_173" vType="car" speedFactor="1.04" vaporized=""/>
    <tripinfo id="NS_185" depart="185.00" departLane="2i_0" departPos="4.10" departSpeed="0.00" departDelay="0.00" arrival="261.00" arrivalLane="1o_0" arrivalPos="492.80" arrivalSpeed="11.20" duration="76.00" routeLength="995.90" waitingTime="0.00" waitingCount="0" stopTime="0.00" timeLoss="8.70" rerouteNo="0" devices="tripinfo_NS_185" vType="car" speedFactor="1.06" vaporized=""/>
    <tripinfo id="NS_181" depart="182.00" departLane="2i_0" departPos="4.10" departSpeed="0.00" departDelay="1.00" arrival="263.00" arrivalLane="4o_0" arrivalPos="492.80" arrivalSpeed="10.06" duration="81.00" routeLength="990.53" waitingTime="0.00" waitingCount="0" stopTime="0.00" timeLoss="8.30" rerouteNo="0" devices="tripinfo_NS_181" vType="car" speedFactor="0.97" vaporized=""/>
    <tripinfo id="WE_150" depart="151.00" departLane="1i_0" departPos="4.10" departSpeed="0.00" departDelay="1.00" arrival="266.00" arrivalLane="2o_0" arrivalPos="492.80" arrivalSpeed="11.49" duration="115.00" routeLength="995.90" waitingTime="33.00" waitingCount="1" stopTime="0.00" timeLoss="49.24" rerouteNo="0" devices="tripinfo_WE_150" vType="car" speedFactor="1.08" vaporized=""/>
    <tripinfo id="WE_149" depart="149.00" departLane="1i_0" departPos="4.10" departSpeed="0.00" departDelay="0.00" arrival="267.00" arrivalLane="4o_0" arrivalPos="492.80" arrivalSpeed="11.09" duration="118.00" routeLength="995.70" waitingTime="36.00" waitingCount="1" stopTime="0.00" timeLoss="48.18" rerouteNo="0" devices="tripinfo_WE_149" vType="car" speedFactor="1.02" vaporized=""/>
    <tripinfo id="NS_192" depart="192.00" departLane="2i_0" departPos="4.10" departSpeed="0.00" departDelay="0.00" arrival="284.00" arrivalLane="3o_0" arrivalPos="492.80" arrivalSpeed="11.07" duration="92.00" routeLength="995.70" waitingTime="11.00" waitingCount="1" stopTime="0.00" timeLoss="23.04" rerouteNo="0" devices="tripinfo_NS_192" vType="car" speedFactor="1.03" vaporized=""/>
    <tripinfo id="WE_189" depart="189.00" departLane="1i_0" departPos="4.10" departSpeed="0.00" departDelay="0.00" arrival="289.00" arrivalLane="4o_0" arrivalPos="492.80" arrivalSpeed="10.50" duration="100.00" routeLength="995.70" waitingTime="11.00" waitingCount="1" stopTime="0.00" timeLoss="25.74" rerouteNo="0" devices="tripinfo_WE_189" vType="car" speedFactor="0.96" vaporized=""/>
    <tripinfo id="WE_191" depart="193.00" departLane="1i_0" departPos="4.10" departSpeed="0.00" departDelay="2.00" arrival="289.00" arrivalLane="2o_0" arrivalPos="492.80" arrivalSpeed="10.68" duration="96.00" routeLength="995.90" waitingTime="8.00" waitingCount="1" stopTime="0.00" timeLoss="24.22" rerouteNo="0" devices="tripinfo_WE_191" vType="car" speedFactor="0.98" vaporized=""/>
    <tripinfo id="NS_211" depart="211.00" departLane="2i_0" departPos="4.10" departSpeed="0.00" departDelay="0.00" arrival="295.00" arrivalLane="3o_0" arrivalPos="492.80" arrivalSpeed="11.08" duration="84.00" routeLength="995.70" waitingTime="0.00" waitingCount="0" stopTime="0.00" timeLoss="12.38" rerouteNo="0" devices="tripinfo_NS_211" vType="car" speedFactor="1.00" vaporized=""/>
    <tripinfo id="NS_217" depart="217.00" departLane="2i_0" departPos="4.10" departSpeed="0.00" departDelay="0.00" arrival="296.00" arrivalLane="3o_0" arrivalPos="492.80" arrivalSpeed="12.09" duration="79.00" routeLength="995.70" waitingTime="0.00" waitingCount="0" stopTime="0.00" timeLoss="17.27" rerouteNo="0" devices="tripinfo_NS_217" vType="car" speedFactor="1.15" vaporized=""/>
    <tripinfo id="NS_213" depart="214.00" departLane="2i_0" departPos="4.10" departSpeed="0.00" departDelay="1.00" arrival="297.00" arrivalLane="1o_0" arrivalPos="492.80" arrivalSpeed="10.08" duration="83.00" routeLength="995.90" waitingTime="0.00" waitingCount="0" stopTime="0.00" timeLoss="9.62" rerouteNo="0" devices="tripinfo_NS_213" vType="car" speedFactor="0.97" vaporized=""/>
    <tripinfo id="NS_218" depart="220.00" departLane="2i_0" departPos="4.10" departSpeed="0.00" departDelay="2.00" arrival="299.00" arrivalLane="3o_0" arrivalPos="492.80" arrivalSpeed="10.69" duration="79.00" routeLength="995.70" waitingTime="0.00" waitingCount="0" stopTime="0.00" timeLoss="10.83" rerouteNo="0" devices="tripinfo_NS_218" vType="car" speedFactor="1.04" vaporized=""/>
    <tripinfo id="WE_196" depart="196.00" departLane="1i_0" departPos="4.10" departSpeed="0.00" departDelay="0.00" arrival="304.00" arrivalLane="4o_0" arrivalPos="492.80" arrivalSpeed="11.16" duration="108.00" routeLength="995.70" waitingTime="15.00" waitingCount="2" stopTime="0.00" timeLoss="37.38" rerouteNo="0" devices="tripinfo_WE_196" vType="car" speedFactor="1.01" vaporized=""/>
    <tripinfo id="WE_200" depart="200.00" departLane="1i_0" departPos="10.10" departSpeed="0.00" departDelay="0.00" arrival="305.00" arrivalLane="3o_0" arrivalPos="492.80" arrivalSpeed="11.08" duration="105.00" routeLength="984.53" waitingTime="9.00" waitingCount="2" stopTime="0.00" timeLoss="36.86" rerouteNo="0" devices="tripinfo_WE_200" vType="truck" speedFactor="1.04" vaporized=""/>
    <tripinfo id="WE_218" depart="218.00" departLane="1i_0" departPos="4.10" departSpeed="0.00" departDelay="0.00" arrival="311.00" arrivalLane="2o_0" arrivalPos="492.80" arrivalSpeed="10.71" duration="93.00" routeLength="995.90" waitingTime="4.00" waitingCount="1" stopTime="0.00" timeLoss="20.13" rerouteNo="0" devices="tripinfo_WE_218" vType="car" speedFactor="0.98" vaporized=""/>
    <tripinfo id="WE_225" depart="225.00" departLane="1i_0" departPos="4.10" departSpeed="0.00" departDelay="0.00" arrival="317.00" arrivalLane="4o_0" arrivalPos="492.80" arrivalSpeed="10.52" duration="92.00" routeLength="995.70" waitingTime="1.00" waitingCount="1" stopTime="0.00" timeLoss="21.64" rerouteNo="0" devices="tripinfo_WE_225" vType="car" speedFactor="1.02" vaporized=""/>
    <tripinfo id="NS_232" depart="232.00" departLane="2i_0" departPos="4.10" departSpeed="0.00" departDelay="0.00" arrival="319.00" arrivalLane="3o_0" arrivalPos="492.80" arrivalSpeed="9.02" duration="87.00" routeLength="995.70" waitingTime="0.00" waitingCount="0" stopTime="0.00" timeLoss="9.61" rerouteNo="0" devices="tripinfo_NS_232" vType="car" speedFactor="0.92" vaporized=""/>
    <tripinfo id="NS_240" depart="240.00" departLane="2i_0" departPos="4.10" departSpeed="0.00" departDelay="0.00" arrival="328.00" arrivalLane="3o_0" arrivalPos="492.80" arrivalSpeed="8.96" duration="88.00" routeLength="995.70" waitingTime="0.00" waitingCount="0" stopTime="0.00" timeLoss="9.67" rerouteNo="0" devices="tripinfo_NS_240" vType="car" speedFactor="0.91" vaporized=""/>
    <tripinfo id="NS_245" depart="245.00" departLane="2i_0" departPos="4.10" departSpeed="0.00" departDelay="0.00" arrival="330.00" arrivalLane="3o_0" arrivalPos="492.80" arrivalSpeed="9.75" duration="85.00" routeLength="995.70" waitingTime="0.00" waitingCount="0" stopTime="0.00" timeLoss="10.66" rerouteNo="0" devices="tripinfo_NS_245" vType="car" speedFactor="0.96" vaporized=""/>
    <tripinfo id="NS_254" depart="254.00" departLane="2i_0" departPos="4.10" departSpeed="0.00" departDelay="0.00" arrival="338.00" arrivalLane="3o_0" arrivalPos="492.80" arrivalSpeed="11.20" duration="84.00" routeLength="995.70" waitingTime="0.00" waitingCount="0" stopTime="0.00" timeLoss="13.89" rerouteNo="0" devices="tripinfo_NS_254" vType="car" speedFactor="1.01" vaporized=""/>
    <tripinfo id="NS_265" depart="266.00" departLane="2i_0" departPos="4.10" departSpeed="0.00" departDelay="1.00" arrival="352.00" arrivalLane="3o_0" arrivalPos="492.80" arrivalSpeed="9.41" duration="86.00" routeLength="995.70" waitingTime="0.00" waitingCount="0" stopTime="0.00" timeLoss="9.53" rerouteNo="0" devices="tripinfo_NS_265" vType="car" speedFactor="0.93" vaporized=""/>
    <tripinfo id="NS_274" depart="274.00" departLane="2i_0" departPos="4.10" departSpeed="0.00" departDelay="0.00" arrival="352.00" arrivalLane="4o_0" arrivalPos="492.80" arrivalSpeed="10.33" duration="78.00" routeLength="990.53" waitingTime="0.00" waitingCount="0" stopTime="0.00" timeLoss="7.75" rerouteNo="0" devices="tripinfo_NS_274" vType="car" speedFactor="1.01" vaporized=""/>
    <tripinfo id="NS_275" depart="277.00" departLane="2i_0" departPos="4.10" departSpeed="0.00" departDelay="2.00" arrival="362.00" arrivalLane="1o_0" arrivalPos="492.80" arrivalSpeed="10.20" duration="85.00" routeLength="995.90" waitingTime="0.00" waitingCount="0" stopTime="0.00" timeLoss="7.70" rerouteNo="0" devices="tripinfo_NS_275" vType="car" speedFactor="0.92" vaporized=""/>
    <tripinfo id="NS_278" depart="282.00" departLane="2i_0" departPos="4.10" departSpeed="0.00" departDelay="4.00" arrival="362.00" arrivalLane="4o_0" arrivalPos="492.80" arrivalSpeed="10.42" duration="80.00" routeLength="990.53" waitingTime="0.00" waitingCount="0" stopTime="0.00" timeLoss="9.16" rerouteNo="0" devices="tripinfo_NS_278" vType="car" speedFactor="1.00" vaporized=""/>
    <tripinfo id="NS_276" depart="279.00" departLane="2i_0" departPos="4.10" departSpeed="0.00" departDelay="3.00" arrival="363.00" arrivalLane="1o_0" arrivalPos="492.80" arrivalSpeed="11.40" duration="84.00" routeLength="995.90" waitingTime="0.00" waitingCount="0" stopTime="0.00" timeLoss="23.87" rerouteNo="0" devices="tripinfo_NS_276" vType="car" speedFactor="1.18" vaporized=""/>
    <tripinfo id="NS_279" depart="285.00" departLane="2i_0" departPos="4.10" departSpeed="0.00" departDelay="6.00" arrival="368.00" arrivalLane="3o_0" arrivalPos="492.80" arrivalSpeed="10.85" duration="83.00" routeLength="995.70" waitingTime="0.00" waitingCount="0" stopTime="0.00" timeLoss="11.04" rerouteNo="0" devices="tripinfo_NS_279" vType="car" speedFactor="0.99" vaporized=""/>
    <tripinfo id="WE_243" depart="243.00" departLane="1i_0" departPos="4.10" departSpeed="0.00" departDelay="0.00" arrival="369.00" arrivalLane="4o_0" arrivalPos="492.80" arrivalSpeed="10.98" duration="126.00" routeLength="995.70" waitingTime="47.00" waitingCount="1" stopTime="0.00" timeLoss="61.57" rerouteNo="0" devices="tripinfo_WE_243" vType="car" speedFactor="1.10" vaporized=""/>
    <tripinfo id="NS_288" depart="289.00" departLane="2i_0" departPos="4.10" departSpeed="0.00" departDelay="1.00" arrival="369.00" arrivalLane="3o_0" arrivalPos="492.80" arrivalSpeed="11.46" duration="80.00" routeLength="995.70" waitingTime="0.00" waitingCount="0" stopTime="0.00" timeLoss="13.45" rerouteNo="0" devices="tripinfo_NS_288" vType="car" speedFactor="1.06" vaporized=""/>
    <tripinfo id="SN_47" depart="47.00" departLane="3i_0" departPos="4.10" departSpeed="0.00" departDelay="0.00" arrival="371.00" arrivalLane="4o_0" arrivalPos="492.80" arrivalSpeed="12.19" duration="324.00" routeLength="995.90" waitingTime="234.00" waitingCount="5" stopTime="0.00" timeLoss="260.68" rerouteNo="0" devices="tripinfo_SN_47" vType="car" speedFactor="1.12" vaporized=""/>
    <tripinfo id="EW_45" depart="45.00" departLane="4i_0" departPos="10.10" departSpeed="0.00" departDelay="0.00" arrival="372.00" arrivalLane="1o_0" arrivalPos="492.80" arrivalSpeed="11.19" duration="327.00" routeLength="984.53" waitingTime="236.00" waitingCount="2" stopTime="0.00" timeLoss="258.17" rerouteNo="0" devices="tripinfo_EW_45" vType="truck" speedFactor="1.02" vaporized=""/>
    <tripinfo id="WE_249" depart="251.00" departLane="1i_0" departPos="4.10" departSpeed="0.00" departDelay="2.00" arrival="380.00" arrivalLane="2o_0" arrivalPos="492.80" arrivalSpeed="9.55" duration="129.00" routeLength="995.90" waitingTime="37.00" waitingCount="1" stopTime="0.00" timeLoss="55.88" rerouteNo="0" devices="tripinfo_WE_249" vType="car" speedFactor="0.97" vaporized=""/>
    <tripinfo id="WE_257" depart="257.00" departLane="1i_0" departPos="4.10" departSpeed="0.00" departDelay="0.00" arrival="382.00" arrivalLane="2o_0" arrivalPos="492.80" arrivalSpeed="11.66" duration="125.00" routeLength="995.90" waitingTime="35.00" waitingCount="1" stopTime="0.00" timeLoss="58.00" rerouteNo="0" devices="tripinfo_WE_257" vType="car" speedFactor="1.06" vaporized=""/>