<?xml version="1.0" encoding="UTF-8"?>

<!-- generated on 2024-05-05 22:05:23 by Eclipse SUMO sumo Version 1.19.0
<configuration xmlns:xsi="http://www.w3.org/2001/XMLSchema-instance" xsi:noNamespaceSchemaLocation="http://sumo.dlr.de/xsd/sumoConfiguration.xsd">

    <input>
        <net-file value="twoone.net.xml"/>
        <route-files value="route_gen.rou.xml"/>
    </input>

    <output>
        <tripinfo-output value="tripinfo_epi194.xml"/>
    </output>

    <report>
        <no-warnings value="true"/>
    </report>

    <traci_server>
        <remote-port value="49609"/>
    </traci_server>

</configuration>
-->

<tripinfos xmlns:xsi="http://www.w3.org/2001/XMLSchema-instance" xsi:noNamespaceSchemaLocation="http://sumo.dlr.de/xsd/tripinfo_file.xsd">
    <tripinfo id="WE_7" depart="7.00" departLane="1i_0" departPos="4.10" departSpeed="0.00" departDelay="0.00" arrival="82.00" arrivalLane="2o_0" arrivalPos="492.80" arrivalSpeed="10.41" duration="75.00" routeLength="995.90" waitingTime="0.00" waitingCount="0" stopTime="0.00" timeLoss="7.54" rerouteNo="0" devices="tripinfo_WE_7" vType="car" speedFactor="1.05" vaporized=""/>
    <tripinfo id="WE_13" depart="13.00" departLane="1i_0" departPos="4.10" departSpeed="0.00" departDelay="0.00" arrival="92.00" arrivalLane="3o_0" arrivalPos="492.80" arrivalSpeed="11.16" duration="79.00" routeLength="990.53" waitingTime="0.00" waitingCount="0" stopTime="0.00" timeLoss="10.32" rerouteNo="0" devices="tripinfo_WE_13" vType="car" speedFactor="1.03" vaporized=""/>
    <tripinfo id="WE_8" depart="10.00" departLane="1i_0" departPos="4.10" departSpeed="0.00" departDelay="2.00" arrival="100.00" arrivalLane="2o_0" arrivalPos="492.80" arrivalSpeed="8.92" duration="90.00" routeLength="995.90" waitingTime="0.00" waitingCount="0" stopTime="0.00" timeLoss="7.35" rerouteNo="0" devices="tripinfo_WE_8" vType="car" speedFactor="0.86" vaporized=""/>
    <tripinfo id="WE_22" depart="22.00" departLane="1i_0" departPos="4.10" departSpeed="0.00" departDelay="0.00" arrival="101.00" arrivalLane="3o_0" arrivalPos="492.80" arrivalSpeed="10.38" duration="79.00" routeLength="990.53" waitingTime="0.00" waitingCount="0" stopTime="0.00" timeLoss="7.82" rerouteNo="0" devices="tripinfo_WE_22" vType="car" speedFactor="0.99" vaporized=""/>
    <tripinfo id="NS_3" depart="5.00" departLane="2i_0" departPos="4.10" departSpeed="0.00" departDelay="2.00" arrival="104.00" arrivalLane="4o_0" arrivalPos="492.80" arrivalSpeed="10.87" duration="99.00" routeLength="990.53" waitingTime="18.00" waitingCount="1" stopTime="0.00" timeLoss="33.34" rerouteNo="0" devices="tripinfo_NS_3" vType="car" speedFactor="1.08" vaporized=""/>
    <tripinfo id="NS_2" depart="2.00" departLane="2i_0" departPos="4.10" departSpeed="0.00" departDelay="0.00" arrival="109.00" arrivalLane="3o_0" arrivalPos="492.80" arrivalSpeed="10.17" duration="107.00" routeLength="995.70" waitingTime="19.00" waitingCount="1" stopTime="0.00" timeLoss="31.22" rerouteNo="0" devices="tripinfo_NS_2" vType="car" speedFactor="0.94" vaporized=""/>
    <tripinfo id="NS_6" depart="8.00" departLane="2i_0" departPos="4.10" departSpeed="0.00" departDelay="2.00" arrival="120.00" arrivalLane="1o_0" arrivalPos="492.80" arrivalSpeed="8.46" duration="112.00" routeLength="995.90" waitingTime="11.00" waitingCount="1" stopTime="0.00" timeLoss="26.38" rerouteNo="0" devices="tripinfo_NS_6" vType="car" speedFactor="0.83" vaporized=""/>
    <tripinfo id="NS_22" depart="22.00" departLane="2i_0" departPos="4.10" departSpeed="0.00" departDelay="0.00" arrival="121.00" arrivalLane="1o_0" arrivalPos="492.80" arrivalSpeed="10.07" duration="99.00" routeLength="995.90" waitingTime="1.00" waitingCount="1" stopTime="0.00" timeLoss="22.63" rerouteNo="0" devices="tripinfo_NS_22" vType="car" speedFactor="0.93" vaporized=""/>
    <tripinfo id="NS_24" depart="24.00" departLane="2i_0" departPos="4.10" departSpeed="0.00" departDelay="0.00" arrival="123.00" arrivalLane="1o_0" arrivalPos="492.80" arrivalSpeed="8.49" duration="99.00" routeLength="995.90" waitingTime="0.00" waitingCount="0" stopTime="0.00" timeLoss="18.55" rerouteNo="0" devices="tripinfo_NS_24" vType="car" speedFactor="0.88" vaporized=""/>
    <tripinfo id="NS_28" depart="28.00" departLane="2i_0" departPos="4.10" departSpeed="0.00" departDelay="0.00" arrival="125.00" arrivalLane="1o_0" arrivalPos="492.80" arrivalSpeed="10.29" duration="97.00" routeLength="995.90" waitingTime="0.00" waitingCount="0" stopTime="0.00" timeLoss="21.21" rerouteNo="0" devices="tripinfo_NS_28" vType="car" speedFactor="0.94" vaporized=""/>
    <tripinfo id="NS_34" depart="34.00" departLane="2i_0" departPos="4.10" departSpeed="0.00" departDelay="0.00" arrival="125.00" arrivalLane="3o_0" arrivalPos="492.80" arrivalSpeed="9.45" duration="91.00" routeLength="995.70" waitingTime="0.00" waitingCount="0" stopTime="0.00" timeLoss="10.84" rerouteNo="0" devices="tripinfo_NS_34" vType="car" speedFactor="0.89" vaporized=""/>
    <tripinfo id="NS_36" depart="36.00" departLane="2i_0" departPos="4.10" departSpeed="0.00" departDelay="0.00" arrival="127.00" arrivalLane="4o_0" arrivalPos="492.80" arrivalSpeed="8.44" duration="91.00" routeLength="990.53" waitingTime="0.00" waitingCount="0" stopTime="0.00" timeLoss="10.11" rerouteNo="0" devices="tripinfo_NS_36" vType="car" speedFactor="0.87" vaporized=""/>
    <tripinfo id="NS_41" depart="41.00" departLane="2i_0" departPos="4.10" departSpeed="0.00" departDelay="0.00" arrival="127.00" arrivalLane="3o_0" arrivalPos="492.80" arrivalSpeed="10.08" duration="86.00" routeLength="995.70" waitingTime="0.00" waitingCount="0" stopTime="0.00" timeLoss="9.72" rerouteNo="0" devices="tripinfo_NS_41" vType="car" speedFactor="0.93" vaporized=""/>
    <tripinfo id="NS_51" depart="51.00" departLane="2i_0" departPos="4.10" departSpeed="0.00" departDelay="0.00" arrival="129.00" arrivalLane="4o_0" arrivalPos="492.80" arrivalSpeed="10.76" duration="78.00" routeLength="990.53" waitingTime="0.00" waitingCount="0" stopTime="0.00" timeLoss="7.86" rerouteNo="0" devices="tripinfo_NS_51" vType="car" speedFactor="1.01" vaporized=""/>
    <tripinfo id="NS_52" depart="53.00" departLane="2i_0" departPos="4.10" departSpeed="0.00" departDelay="1.00" arrival="136.00" arrivalLane="3o_0" arrivalPos="492.80" arrivalSpeed="10.15" duration="83.00" routeLength="995.70" waitingTime="0.00" waitingCount="0" stopTime="0.00" timeLoss="11.15" rerouteNo="0" devices="tripinfo_NS_52" vType="car" speedFactor="0.99" vaporized=""/>
    <tripinfo id="WE_30" depart="30.00" departLane="1i_0" departPos="4.10" departSpeed="0.00" departDelay="0.00" arrival="139.00" arrivalLane="2o_0" arrivalPos="492.80" arrivalSpeed="11.25" duration="109.00" routeLength="995.90" waitingTime="24.00" waitingCount="1" stopTime="0.00" timeLoss="39.54" rerouteNo="0" devices="tripinfo_WE_30" vType="car" speedFactor="1.02" vaporized=""/>
    <tripinfo id="WE_27" depart="27.00" departLane="1i_0" departPos="4.10" departSpeed="0.00" departDelay="0.00" arrival="141.00" arrivalLane="4o_0" arrivalPos="492.80" arrivalSpeed="10.29" duration="114.00" routeLength="995.70" waitingTime="25.00" waitingCount="1" stopTime="0.00" timeLoss="38.16" rerouteNo="0" devices="tripinfo_WE_27" vType="car" speedFactor="0.94" vaporized=""/>
    <tripinfo id="WE_52" depart="52.00" departLane="1i_0" departPos="4.10" departSpeed="0.00" departDelay="0.00" arrival="142.00" arrivalLane="4o_0" arrivalPos="492.80" arrivalSpeed="11.07" duration="90.00" routeLength="995.70" waitingTime="10.00" waitingCount="1" stopTime="0.00" timeLoss="29.61" rerouteNo="0" devices="tripinfo_WE_52" vType="car" speedFactor="1.17" vaporized=""/>
    <tripinfo id="WE_38" depart="39.00" departLane="1i_0" departPos="4.10" departSpeed="0.00" departDelay="1.00" arrival="148.00" arrivalLane="3o_0" arrivalPos="492.80" arrivalSpeed="10.14" duration="109.00" routeLength="990.53" waitingTime="15.00" waitingCount="1" stopTime="0.00" timeLoss="31.63" rerouteNo="0" devices="tripinfo_WE_38" vType="car" speedFactor="0.92" vaporized=""/>
    <tripinfo id="WE_64" depart="64.00" departLane="1i_0" departPos="4.10" departSpeed="0.00" departDelay="0.00" arrival="150.00" arrivalLane="3o_0" arrivalPos="492.80" arrivalSpeed="12.20" duration="86.00" routeLength="990.53" waitingTime="0.00" waitingCount="0" stopTime="0.00" timeLoss="21.51" rerouteNo="0" devices="tripinfo_WE_64" vType="car" speedFactor="1.10" vaporized=""/>
    <tripinfo id="WE_36" depart="36.00" departLane="1i_0" departPos="4.10" departSpeed="0.00" departDelay="0.00" arrival="152.00" arrivalLane="2o_0" arrivalPos="492.80" arrivalSpeed="8.92" duration="116.00" routeLength="995.90" waitingTime="16.00" waitingCount="1" stopTime="0.00" timeLoss="30.28" rerouteNo="0" devices="tripinfo_WE_36" vType="car" speedFactor="0.83" vaporized=""/>
    <tripinfo id="WE_55" depart="55.00" departLane="1i_0" departPos="10.10" departSpeed="0.00" departDelay="0.00" arrival="154.00" arrivalLane="2o_0" arrivalPos="492.80" arrivalSpeed="10.66" duration="99.00" routeLength="989.90" waitingTime="0.00" waitingCount="0" stopTime="0.00" timeLoss="29.36" rerouteNo="0" devices="tripinfo_WE_55" vType="truck" speedFactor="1.01" vaporized=""/>
    <tripinfo id="WE_72" depart="72.00" departLane="1i_0" departPos="4.10" departSpeed="0.00" departDelay="0.00" arrival="160.00" arrivalLane="2o_0" arrivalPos="492.80" arrivalSpeed="9.78" duration="88.00" routeLength="995.90" waitingTime="0.00" waitingCount="0" stopTime="0.00" timeLoss="9.53" rerouteNo="0" devices="tripinfo_WE_72" vType="car" speedFactor="0.90" vaporized=""/>
    <tripinfo id="WE_85" depart="85.00" departLane="1i_0" departPos="4.10" departSpeed="0.00" departDelay="0.00" arrival="161.00" arrivalLane="4o_0" arrivalPos="492.80" arrivalSpeed="11.80" duration="76.00" routeLength="995.70" waitingTime="0.00" waitingCount="0" stopTime="0.00" timeLoss="10.52" rerouteNo="0" devices="tripinfo_WE_85" vType="car" speedFactor="1.09" vaporized=""/>
    <tripinfo id="WE_74" depart="75.00" departLane="1i_0" departPos="4.10" departSpeed="0.00" departDelay="1.00" arrival="162.00" arrivalLane="2o_0" arrivalPos="492.80" arrivalSpeed="10.82" duration="87.00" routeLength="995.90" waitingTime="0.00" waitingCount="0" stopTime="0.00" timeLoss="17.94" rerouteNo="0" devices="tripinfo_WE_74" vType="car" speedFactor="1.03" vaporized=""/>
    <tripinfo id="NS_92" depart="92.00" departLane="2i_0" departPos="10.10" departSpeed="0.00" departDelay="0.00" arrival="175.00" arrivalLane="1o_0" arrivalPos="492.80" arrivalSpeed="10.89" duration="83.00" routeLength="989.90" waitingTime="0.00" waitingCount="0" stopTime="0.00" timeLoss="13.23" rerouteNo="0" devices="tripinfo_NS_92" vType="truck" speedFactor="1.02" vaporized=""/>
    <tripinfo id="WE_95" depart="97.00" departLane="1i_0" departPos="4.10" departSpeed="0.00" departDelay="2.00" arrival="179.00" arrivalLane="2o_0" arrivalPos="492.80" arrivalSpeed="11.98" duration="82.00" routeLength="995.90" waitingTime="3.00" waitingCount="1" stopTime="0.00" timeLoss="16.85" rerouteNo="0" devices="tripinfo_WE_95" vType="car" speedFactor="1.09" vaporized=""/>
    <tripinfo id="WE_94" depart="94.00" departLane="1i_0" departPos="4.10" departSpeed="0.00" departDelay="0.00" arrival="180.00" arrivalLane="4o_0" arrivalPos="492.80" arrivalSpeed="11.47" duration="86.00" routeLength="995.70" waitingTime="2.00" waitingCount="1" stopTime="0.00" timeLoss="18.34" rerouteNo="0" devices="tripinfo_WE_94" vType="car" speedFactor="1.04" vaporized=""/>
    <tripinfo id="NS_105" depart="105.00" departLane="2i_0" departPos="4.10" departSpeed="0.00" departDelay="0.00" arrival="198.00" arrivalLane="3o_0" arrivalPos="492.80" arrivalSpeed="8.50" duration="93.00" routeLength="995.70" waitingTime="0.00" waitingCount="0" stopTime="0.00" timeLoss="9.74" rerouteNo="0" devices="tripinfo_NS_105" vType="car" speedFactor="0.85" vaporized=""/>
    <tripinfo id="WE_114" depart="114.00" departLane="1i_0" departPos="4.10" departSpeed="0.00" departDelay="0.00" arrival="205.00" arrivalLane="3o_0" arrivalPos="492.80" arrivalSpeed="8.40" duration="91.00" routeLength="990.53" waitingTime="0.00" waitingCount="0" stopTime="0.00" timeLoss="8.50" rerouteNo="0" devices="tripinfo_WE_114" vType="car" speedFactor="0.85" vaporized=""/>
    <tripinfo id="NS_118" depart="118.00" departLane="2i_0" departPos="4.10" departSpeed="0.00" departDelay="0.00" arrival="208.00" arrivalLane="3o_0" arrivalPos="492.80" arrivalSpeed="11.78" duration="90.00" routeLength="995.70" waitingTime="17.00" waitingCount="1" stopTime="0.00" timeLoss="29.56" rerouteNo="0" devices="tripinfo_NS_118" vType="car" speedFactor="1.17" vaporized=""/>
    <tripinfo id="NS_122" depart="122.00" departLane="2i_0" departPos="10.10" departSpeed="0.00" departDelay="0.00" arrival="219.00" arrivalLane="1o_0" arrivalPos="492.80" arrivalSpeed="11.15" duration="97.00" routeLength="989.90" waitingTime="5.00" waitingCount="1" stopTime="0.00" timeLoss="27.41" rerouteNo="0" devices="tripinfo_NS_122" vType="truck" speedFactor="1.01" vaporized=""/>
    <tripinfo id="WE_130" depart="130.00" departLane="1i_0" departPos="4.10" departSpeed="0.00" departDelay="0.00" arrival="224.00" arrivalLane="4o_0" arrivalPos="492.80" arrivalSpeed="10.73" duration="94.00" routeLength="995.70" waitingTime="10.00" waitingCount="1" stopTime="0.00" timeLoss="23.65" rerouteNo="0" devices="tripinfo_WE_130" vType="car" speedFactor="1.00" vaporized=""/>
    <tripinfo id="WE_131" depart="133.00" departLane="1i_0" departPos="4.10" departSpeed="0.00" departDelay="2.00" arrival="227.00" arrivalLane="3o_0" arrivalPos="492.80" arrivalSpeed="10.90" duration="94.00" routeLength="990.53" waitingTime="8.00" waitingCount="1" stopTime="0.00" timeLoss="22.72" rerouteNo="0" devices="tripinfo_WE_131" vType="car" speedFactor="1.00" vaporized=""/>
    <tripinfo id="NS_152" depart="152.00" departLane="2i_0" departPos="4.10" departSpeed="0.00" departDelay="0.00" arrival="233.00" arrivalLane="1o_0" arrivalPos="492.80" arrivalSpeed="9.53" duration="81.00" routeLength="995.90" waitingTime="0.00" waitingCount="0" stopTime="0.00" timeLoss="7.54" rerouteNo="0" devices="tripinfo_NS_152" vType="car" speedFactor="0.97" vaporized=""/>
    <tripinfo id="WE_144" depart="144.00" departLane="1i_0" departPos="4.10" departSpeed="0.00" departDelay="0.00" arrival="234.00" arrivalLane="2o_0" arrivalPos="492.80" arrivalSpeed="9.78" duration="90.00" routeLength="995.90" waitingTime="0.00" waitingCount="0" stopTime="0.00" timeLoss="10.86" rerouteNo="0" devices="tripinfo_WE_144" vType="car" speedFactor="0.90" vaporized=""/>
    <tripinfo id="NS_159" depart="160.00" departLane="2i_0" departPos="4.10" departSpeed="0.00" departDelay="1.00" arrival="234.00" arrivalLane="1o_0" arrivalPos="492.80" arrivalSpeed="11.13" duration="74.00" routeLength="995.90" waitingTime="0.00" waitingCount="0" stopTime="0.00" timeLoss="8.68" rerouteNo="0" devices="tripinfo_NS_159" vType="car" speedFactor="1.08" vaporized=""/>
    <tripinfo id="WE_160" depart="160.00" departLane="1i_0" departPos="10.10" departSpeed="0.00" departDelay="0.00" arrival="239.00" arrivalLane="3o_0" arrivalPos="492.80" arrivalSpeed="11.42" duration="79.00" routeLength="984.53" waitingTime="0.00" waitingCount="0" stopTime="0.00" timeLoss="12.34" rerouteNo="0" devices="tripinfo_WE_160" vType="truck" speedFactor="1.06" vaporized=""/>
    <tripinfo id="WE_169" depart="169.00" departLane="1i_0" departPos="4.10" departSpeed="0.00" departDelay="0.00" arrival="249.00" arrivalLane="2o_0" arrivalPos="492.80" arrivalSpeed="10.59" duration="80.00" routeLength="995.90" waitingTime="0.00" waitingCount="0" stopTime="0.00" timeLoss="8.49" rerouteNo="0" devices="tripinfo_WE_169" vType="car" speedFactor="0.99" vaporized=""/>
    <tripinfo id="WE_171" depart="175.00" departLane="1i_0" departPos="4.10" departSpeed="0.00" departDelay="4.00" arrival="263.00" arrivalLane="3o_0" arrivalPos="492.80" arrivalSpeed="9.78" duration="88.00" routeLength="990.53" waitingTime="0.00" waitingCount="0" stopTime="0.00" timeLoss="7.68" rerouteNo="0" devices="tripinfo_WE_171" vType="car" speedFactor="0.88" vaporized=""/>
    <tripinfo id="NS_172" depart="172.00" departLane="2i_0" departPos="10.10" departSpeed="0.00" departDelay="0.00" arrival="263.00" arrivalLane="4o_0" arrivalPos="492.80" arrivalSpeed="10.05" duration="91.00" routeLength="984.53" waitingTime="0.00" waitingCount="0" stopTime="0.00" timeLoss="16.93" rerouteNo="0" devices="tripinfo_NS_172" vType="truck" speedFactor="0.95" vaporized=""/>
    <tripinfo id="NS_166" depart="166.00" departLane="2i_0" departPos="4.10" departSpeed="0.00" departDelay="0.00" arrival="264.00" arrivalLane="3o_0" arrivalPos="492.80" arrivalSpeed="10.91" duration="98.00" routeLength="995.70" waitingTime="9.00" waitingCount="1" stopTime="0.00" timeLoss="28.39" rerouteNo="0" devices="tripinfo_NS_166" vType="car" speedFactor="1.02" vaporized=""/>
    <tripinfo id="WE_176" depart="177.00" departLane="1i_0" departPos="4.10" departSpeed="0.00" departDelay="1.00" arrival="269.00" arrivalLane="4o_0" arrivalPos="492.80" arrivalSpeed="9.19" duration="92.00" routeLength="995.70" waitingTime="0.00" waitingCount="0" stopTime="0.00" timeLoss="14.47" rerouteNo="0" devices="tripinfo_WE_176" vType="car" speedFactor="0.91" vaporized=""/>
    <tripinfo id="WE_188" depart="188.00" departLane="1i_0" departPos="4.10" departSpeed="0.00" departDelay="0.00" arrival="271.00" arrivalLane="4o_0" arrivalPos="492.80" arrivalSpeed="10.08" duration="83.00" routeLength="995.70" waitingTime="0.00" waitingCount="0" stopTime="0.00" timeLoss="13.28" rerouteNo="0" devices="tripinfo_WE_188" vType="car" speedFactor="1.02" vaporized=""/>
    <tripinfo id="NS_193" depart="193.00" departLane="2i_0" departPos="4.10" departSpeed="0.00" departDelay="0.00" arrival="274.00" arrivalLane="1o_0" arrivalPos="492.80" arrivalSpeed="9.63" duration="81.00" routeLength="995.90" waitingTime="0.00" waitingCount="0" stopTime="0.00" timeLoss="8.13" rerouteNo="0" devices="tripinfo_NS_193" vType="car" speedFactor="0.97" vaporized=""/>
    <tripinfo id="NS_199" depart="199.00" departLane="2i_0" departPos="4.10" departSpeed="0.00" departDelay="0.00" arrival="274.00" arrivalLane="4o_0" arrivalPos="492.80" arrivalSpeed="11.48" duration="75.00" routeLength="990.53" waitingTime="0.00" waitingCount="0" stopTime="0.00" timeLoss="8.21" rerouteNo="0" devices="tripinfo_NS_199" vType="car" speedFactor="1.06" vaporized=""/>
    <tripinfo id="NS_207" depart="207.00" departLane="2i_0" departPos="4.10" departSpeed="0.00" departDelay="0.00" arrival="286.00" arrivalLane="4o_0" arrivalPos="492.80" arrivalSpeed="9.99" duration="79.00" routeLength="990.53" waitingTime="0.00" waitingCount="0" stopTime="0.00" timeLoss="7.62" rerouteNo="0" devices="tripinfo_NS_207" vType="car" speedFactor="0.98" vaporized=""/>
    <tripinfo id="WE_203" depart="203.00" departLane="1i_0" departPos="4.10" departSpeed="0.00" departDelay="0.00" arrival="291.00" arrivalLane="4o_0" arrivalPos="492.80" arrivalSpeed="9.93" duration="88.00" routeLength="995.70" waitingTime="0.00" waitingCount="0" stopTime="0.00" timeLoss="13.74" rerouteNo="0" devices="tripinfo_WE_203" vType="car" speedFactor="0.96" vaporized=""/>
    <tripinfo id="WE_226" depart="226.00" departLane="1i_0" departPos="4.10" departSpeed="0.00" departDelay="0.00" arrival="303.00" arrivalLane="2o_0" arrivalPos="492.80" arrivalSpeed="10.90" duration="77.00" routeLength="995.90" waitingTime="0.00" waitingCount="0" stopTime="0.00" timeLoss="8.09" rerouteNo="0" devices="tripinfo_WE_226" vType="car" speedFactor="1.03" vaporized=""/>
    <tripinfo id="NS_228" depart="228.00" departLane="2i_0" departPos="4.10" departSpeed="0.00" departDelay="0.00" arrival="309.00" arrivalLane="3o_0" arrivalPos="492.80" arrivalSpeed="10.12" duration="81.00" routeLength="995.70" waitingTime="0.00" waitingCount="0" stopTime="0.00" timeLoss="10.33" rerouteNo="0" devices="tripinfo_NS_228" vType="car" speedFactor="1.00" vaporized=""/>
    <tripinfo id="WE_230" depart="230.00" departLane="1i_0" departPos="4.10" departSpeed="0.00" departDelay="0.00" arrival="309.00" arrivalLane="4o_0" arrivalPos="492.80" arrivalSpeed="10.72" duration="79.00" routeLength="995.70" waitingTime="0.00" waitingCount="0" stopTime="0.00" timeLoss="9.25" rerouteNo="0" devices="tripinfo_WE_230" vType="car" speedFactor="1.02" vaporized=""/>
    <tripinfo id="WE_235" depart="235.00" departLane="1i_0" departPos="4.10" departSpeed="0.00" departDelay="0.00" arrival="318.00" arrivalLane="4o_0" arrivalPos="492.80" arrivalSpeed="9.60" duration="83.00" routeLength="995.70" waitingTime="0.00" waitingCount="0" stopTime="0.00" timeLoss="9.11" rerouteNo="0" devices="tripinfo_WE_235" vType="car" speedFactor="0.97" vaporized=""/>
    <tripinfo id="WE_241" depart="241.00" departLane="1i_0" departPos="4.10" departSpeed="0.00" departDelay="0.00" arrival="322.00" arrivalLane="4o_0" arrivalPos="492.80" arrivalSpeed="10.62" duration="81.00" routeLength="995.70" waitingTime="0.00" waitingCount="0" stopTime="0.00" timeLoss="10.06" rerouteNo="0" devices="tripinfo_WE_241" vType="car" speedFactor="1.00" vaporized=""/>
    <tripinfo id="NS_260" depart="260.00" departLane="2i_0" departPos="4.10" departSpeed="0.00" departDelay="0.00" arrival="338.00" arrivalLane="4o_0" arrivalPos="492.80" arrivalSpeed="11.11" duration="78.00" routeLength="990.53" waitingTime="0.00" waitingCount="0" stopTime="0.00" timeLoss="8.62" rerouteNo="0" devices="tripinfo_NS_260" vType="car" speedFactor="1.02" vaporized=""/>
    <tripinfo id="WE_259" depart="261.00" departLane="1i_0" departPos="4.10" departSpeed="0.00" departDelay="2.00" arrival="340.00" arrivalLane="3o_0" arrivalPos="492.80" arrivalSpeed="10.71" duration="79.00" routeLength="990.53" waitingTime="0.00" waitingCount="0" stopTime="0.00" timeLoss="9.87" rerouteNo="0" devices="tripinfo_WE_259" vType="car" speedFactor="1.02" vaporized=""/>
    <tripinfo id="WE_258" depart="258.00" departLane="1i_0" departPos="4.10" departSpeed="0.00" departDelay="0.00" arrival="341.00" arrivalLane="4o_0" arrivalPos="492.80" arrivalSpeed="10.90" duration="83.00" routeLength="995.70" waitingTime="0.00" waitingCount="0" stopTime="0.00" timeLoss="12.24" rerouteNo="0" devices="tripinfo_WE_258" vType="car" speedFactor="1.01" vaporized=""/>
    <tripinfo id="WE_270" depart="270.00" departLane="1i_0" departPos="4.10" departSpeed="0.00" departDelay="0.00" arrival="351.00" arrivalLane="4o_0" arrivalPos="492.80" arrivalSpeed="10.19" duration="81.00" routeLength="995.70" waitingTime="0.00" waitingCount="0" stopTime="0.00" timeLoss="10.77" rerouteNo="0" devices="tripinfo_WE_270" vType="car" speedFactor="1.01" vaporized=""/>
    <tripinfo id="NS_261" depart="263.00" departLane="2i_0" departPos="4.10" departSpeed="0.00" departDelay="2.00" arrival="352.00" arrivalLane="3o_0" arrivalPos="492.80" arrivalSpeed="9.62" duration="89.00" routeLength="995.70" waitingTime="0.00" waitingCount="0" stopTime="0.00" timeLoss="9.61" rerouteNo="0" devices="tripinfo_NS_261" vType="car" speedFactor="0.89" vaporized=""/>
    <tripinfo id="NS_277" depart="277.00" departLane="2i_0" departPos="4.10" departSpeed="0.00" departDelay="0.00" arrival="354.00" arrivalLane="3o_0" arrivalPos="492.80" arrivalSpeed="12.16" duration="77.00" routeLength="995.70" waitingTime="0.00" waitingCount="0" stopTime="0.00" timeLoss="12.20" rerouteNo="0" devices="tripinfo_NS_277" vType="car" speedFactor="1.10" vaporized=""/>
    <tripinfo id="NS_278" depart="280.00" departLane="2i_0" departPos="10.10" departSpeed="0.00" departDelay="2.00" arrival="361.00" arrivalLane="1o_0" arrivalPos="492.80" arrivalSpeed="10.97" duration="81.00" routeLength="989.90" waitingTime="0.00" waitingCount="0" stopTime="0.00" timeLoss="11.88" rerouteNo="0" devices="tripinfo_NS_278" vType="truck" speedFactor="1.03" vaporized=""/>
    <tripinfo id="WE_282" depart="282.00" departLane="1i_0" departPos="10.10" departSpeed="0.00" departDelay="0.00" arrival="366.00" arrivalLane="2o_0" arrivalPos="492.80" arrivalSpeed="10.36" duration="84.00" routeLength="989.90" waitingTime="0.00" waitingCount="0" stopTime="0.00" timeLoss="11.90" rerouteNo="0" devices="tripinfo_WE_282" vType="truck" speedFactor="0.98" vaporized=""/>
    <tripinfo id="WE_290" depart="290.00" departLane="1i_0" departPos="4.10" departSpeed="0.00" departDelay="0.00" arrival="368.00" arrivalLane="2o_0" arrivalPos="492.80" arrivalSpeed="11.11" duration="78.00" routeLength="995.90" waitingTime="0.00" waitingCount="0" stopTime="0.00" timeLoss="12.19" rerouteNo="0" devices="tripinfo_WE_290" vType="car" speedFactor="1.07" vaporized=""/>
    <tripinfo id="EW_0" depart="0.00" departLane="4i_0" departPos="4.10" departSpeed="0.00" departDelay="0.00" arrival="379.00" arrivalLane="3o_0" arrivalPos="492.80" arrivalSpeed="10.80" duration="379.00" routeLength="981.50" waitingTime="301.00" waitingCount="1" stopTime="0.00" timeLoss="313.01" rerouteNo="0" devices="tripinfo_EW_0" vType="car" speedFactor="1.06" vaporized=""/>
    <tripinfo id="SN_3" depart="3.00" departLane="3i_0" departPos="4.10" departSpeed="0.00" departDelay="0.00" arrival="384.00" arrivalLane="2o_0" arrivalPos="492.80" arrivalSpeed="11.16" duration="381.00" routeLength="981.50" waitingTime="301.00" waitingCount="1" stopTime="0.00" timeLoss="313.16" rerouteNo="0" devices="tripinfo_SN_3" vType="car" speedFactor="1.03" vaporized=""/>
    <tripinfo id="WE_297" depart="297.00" departLane="1i_0" departPos="4.10" departSpeed="0.00" departDelay="0.00" arrival="401.00" arrivalLane="4o_0" arrivalPos="492.80" arrivalSpeed="11.17" duration="104.00" routeLength="995.70" waitingTime="24.00" waitingCount="1" stopTime="0.00" timeLoss="37.11" rerouteNo="0" devices="tripinfo_WE_297" vType="car" speedFactor="1.06" vaporized=""/>
    <tripinfo id="NS_286" depart="286.00" departLane="2i_0" departPos="4.10" departSpeed="0.00" departDelay="0.00" arrival="402.00" arrivalLane="3o_0" arrivalPos="492.80" arrivalSpeed="10.63" duration="116.00" routeLength="995.70" waitingTime="28.00" waitingCount="1" stopTime="0.00" timeLoss="42.43" rerouteNo="0" devices="tripinfo_NS_286" vType="car" speedFactor="0.97" vaporized=""/>
    <tripinfo id="NS_287" depart="290.00" departLane="2i_0" departPos="10.10" departSpeed="0.00" departDelay="3.00" arrival="404.00" arrivalLane="3o_0" arrivalPos="492.80" arrivalSpeed="10.39" duration="114.00" routeLength="989.70" waitingTime="19.00" waitingCount="1" stopTime="0.00" timeLoss="41.91" rerouteNo="0" devices="tripinfo_NS_287" vType="truck" speedFactor="0.98" vaporized=""/>
    <tripinfo id="WE_315" depart="315.00" departLane="1i_0" departPos="4.10" departSpeed="0.00" departDelay="0.00" arrival="410.00" arrivalLane="3o_0" arrivalPos="492.80" arrivalSpeed="10.22" duration="95.00" routeLength="990.53" waitingTime="2.00" waitingCount="1" stopTime="0.00" timeLoss="18.69" rerouteNo="0" devices="tripinfo_WE_315" vType="car" speedFactor="0.92" vaporized=""/>
    <tripinfo id="WE_332" depart="332.00" departLane="1i_0" departPos="4.10" departSpeed="0.00" departDelay="0.00" arrival="412.00" arrivalLane="3o_0" arrivalPos="492.80" arrivalSpeed="10.60" duration="80.00" routeLength="990.53" waitingTime="0.00" waitingCount="0" stopTime="0.00" timeLoss="10.87" rerouteNo="0" devices="tripinfo_WE_332" vType="car" speedFactor="1.02" vaporized=""/>
    <tripinfo id="NS_293" depart="297.00" departLane="2i_0" departPos="4.10" departSpeed="0.00" departDelay="4.00" arrival="415.00" arrivalLane="1o_0" arrivalPos="492.80" arrivalSpeed="10.64" duration="118.00" routeLength="995.90" waitingTime="21.00" waitingCount="2" stopTime="0.00" timeLoss="49.00" rerouteNo="0" devices="tripinfo_NS_293" vType="car" speedFactor="1.03" vaporized=""/>
    <tripinfo id="NS_289" depart="294.00" departLane="2i_0" departPos="4.10" departSpeed="0.00" departDelay="5.00" arrival="420.00" arrivalLane="3o_0" arrivalPos="492.80" arrivalSpeed="9.47" duration="126.00" routeLength="995.70" waitingTime="22.00" waitingCount="2" stopTime="0.00" timeLoss="46.27" rerouteNo="0" devices="tripinfo_NS_289" vType="car" speedFactor="0.89" vaporized=""/>
    <tripinfo id="NS_309" depart="309.00" departLane="2i_0" departPos="4.10" departSpeed="0.00" departDelay="0.00" arrival="426.00" arrivalLane="1o_0" arrivalPos="492.80" arrivalSpeed="8.99" duration="117.00" routeLength="995.90" waitingTime="11.00" waitingCount="2" stopTime="0.00" timeLoss="34.77" rerouteNo="0" devices="tripinfo_NS_309" vType="car" speedFactor="0.87" vaporized=""/>
    <tripinfo id="NS_311" depart="311.00" departLane="2i_0" departPos="4.10" departSpeed="0.00" departDelay="0.00" arrival="427.00" arrivalLane="1o_0" arrivalPos="492.80" arrivalSpeed="10.69" duration="116.00" routeLength="995.90" waitingTime="10.00" waitingCount="3" stopTime="0.00" timeLoss="45.97" rerouteNo="0" devices="tripinfo_NS_311" vType="car" speedFactor="1.01" vaporized=""/>
    <tripinfo id="NS_313" depart="315.00" departLane="2i_0" departPos="4.10" departSpeed="0.00" departDelay="2.00" arrival="429.00" arrivalLane="1o_0" arrivalPos="492.80" arrivalSpeed="11.24" duration="114.00" routeLength="995.90" waitingTime="8.00" waitingCount="2" stopTime="0.00" timeLoss="49.32" rerouteNo="0" devices="tripinfo_NS_313" vType="car" speedFactor="1.10" vaporized=""/>
    <tripinfo id="WE_346" depart="346.00" departLane="1i_0" departPos="4.10" departSpeed="0.00" departDelay="0.00" arrival="429.00" arrivalLane="2o_0" arrivalPos="492.80" arrivalSpeed="10.16" duration="83.00" routeLength="995.90" waitingTime="0.00" waitingCount="0" stopTime="0.00" timeLoss="9.22" rerouteNo="0" devices="tripinfo_WE_346" vType="car" speedFactor="0.96" vaporized=""/>
    <tripinfo id="NS_319" depart="319.00" departLane="2i_0" departPos="4.10" departSpeed="0.00" departDelay="0.00" arrival="431.00" arrivalLane="1o_0" arrivalPos="492.80" arrivalSpeed="10.58" duration="112.00" routeLength="995.90" waitingTime="5.00" waitingCount="1" stopTime="0.00" timeLoss="41.17" rerouteNo="0" devices="tripinfo_NS_319" vType="car" speedFactor="1.00" vaporized=""/>