<?xml version="1.0" encoding="UTF-8"?>

<!-- generated on 2024-05-05 22:47:22 by Eclipse SUMO sumo Version 1.19.0
<configuration xmlns:xsi="http://www.w3.org/2001/XMLSchema-instance" xsi:noNamespaceSchemaLocation="http://sumo.dlr.de/xsd/sumoConfiguration.xsd">

    <input>
        <net-file value="twoone.net.xml"/>
        <route-files value="route_gen.rou.xml"/>
    </input>

    <output>
        <tripinfo-output value="tripinfo_epi375.xml"/>
    </output>

    <report>
        <no-warnings value="true"/>
    </report>

    <traci_server>
        <remote-port value="35487"/>
    </traci_server>

</configuration>
-->

<tripinfos xmlns:xsi="http://www.w3.org/2001/XMLSchema-instance" xsi:noNamespaceSchemaLocation="http://sumo.dlr.de/xsd/tripinfo_file.xsd">
    <tripinfo id="EW_1" depart="1.00" departLane="4i_0" departPos="4.10" departSpeed="0.00" departDelay="0.00" arrival="82.00" arrivalLane="2o_0" arrivalPos="492.80" arrivalSpeed="11.18" duration="81.00" routeLength="995.70" waitingTime="0.00" waitingCount="0" stopTime="0.00" timeLoss="14.13" rerouteNo="0" devices="tripinfo_EW_1" vType="car" speedFactor="1.06" vaporized=""/>
    <tripinfo id="NS_6" depart="6.00" departLane="2i_0" departPos="4.10" departSpeed="0.00" departDelay="0.00" arrival="84.00" arrivalLane="4o_0" arrivalPos="492.80" arrivalSpeed="10.50" duration="78.00" routeLength="990.53" waitingTime="0.00" waitingCount="0" stopTime="0.00" timeLoss="8.33" rerouteNo="0" devices="tripinfo_NS_6" vType="car" speedFactor="1.01" vaporized=""/>
    <tripinfo id="NS_10" depart="10.00" departLane="2i_0" departPos="4.10" departSpeed="0.00" departDelay="0.00" arrival="84.00" arrivalLane="1o_0" arrivalPos="492.80" arrivalSpeed="11.12" duration="74.00" routeLength="995.90" waitingTime="0.00" waitingCount="0" stopTime="0.00" timeLoss="8.80" rerouteNo="0" devices="tripinfo_NS_10" vType="car" speedFactor="1.08" vaporized=""/>
    <tripinfo id="NS_12" depart="12.00" departLane="2i_0" departPos="4.10" departSpeed="0.00" departDelay="0.00" arrival="92.00" arrivalLane="3o_0" arrivalPos="492.80" arrivalSpeed="10.48" duration="80.00" routeLength="995.70" waitingTime="0.00" waitingCount="0" stopTime="0.00" timeLoss="10.77" rerouteNo="0" devices="tripinfo_NS_12" vType="car" speedFactor="1.03" vaporized=""/>
    <tripinfo id="WE_22" depart="22.00" departLane="1i_0" departPos="4.10" departSpeed="0.00" departDelay="0.00" arrival="97.00" arrivalLane="3o_0" arrivalPos="492.80" arrivalSpeed="10.59" duration="75.00" routeLength="990.53" waitingTime="0.00" waitingCount="0" stopTime="0.00" timeLoss="7.18" rerouteNo="0" devices="tripinfo_WE_22" vType="car" speedFactor="1.05" vaporized=""/>
    <tripinfo id="WE_24" depart="25.00" departLane="1i_0" departPos="4.10" departSpeed="0.00" departDelay="1.00" arrival="108.00" arrivalLane="3o_0" arrivalPos="492.80" arrivalSpeed="9.37" duration="83.00" routeLength="990.53" waitingTime="0.00" waitingCount="0" stopTime="0.00" timeLoss="7.37" rerouteNo="0" devices="tripinfo_WE_24" vType="car" speedFactor="0.94" vaporized=""/>
    <tripinfo id="NS_36" depart="36.00" departLane="2i_0" departPos="4.10" departSpeed="0.00" departDelay="0.00" arrival="114.00" arrivalLane="1o_0" arrivalPos="492.80" arrivalSpeed="11.28" duration="78.00" routeLength="995.90" waitingTime="0.00" waitingCount="0" stopTime="0.00" timeLoss="8.40" rerouteNo="0" devices="tripinfo_NS_36" vType="car" speedFactor="1.03" vaporized=""/>
    <tripinfo id="NS_19" depart="19.00" departLane="2i_0" departPos="4.10" departSpeed="0.00" departDelay="0.00" arrival="117.00" arrivalLane="3o_0" arrivalPos="492.80" arrivalSpeed="8.58" duration="98.00" routeLength="995.70" waitingTime="0.00" waitingCount="0" stopTime="0.00" timeLoss="12.70" rerouteNo="0" devices="tripinfo_NS_19" vType="car" speedFactor="0.83" vaporized=""/>
    <tripinfo id="NS_23" depart="23.00" departLane="2i_0" departPos="4.10" departSpeed="0.00" departDelay="0.00" arrival="119.00" arrivalLane="3o_0" arrivalPos="492.80" arrivalSpeed="9.11" duration="96.00" routeLength="995.70" waitingTime="0.00" waitingCount="0" stopTime="0.00" timeLoss="15.76" rerouteNo="0" devices="tripinfo_NS_23" vType="car" speedFactor="0.89" vaporized=""/>
    <tripinfo id="NS_25" depart="25.00" departLane="2i_0" departPos="4.10" departSpeed="0.00" departDelay="0.00" arrival="119.00" arrivalLane="4o_0" arrivalPos="492.80" arrivalSpeed="8.70" duration="94.00" routeLength="990.53" waitingTime="0.00" waitingCount="0" stopTime="0.00" timeLoss="11.60" rerouteNo="0" devices="tripinfo_NS_25" vType="car" speedFactor="0.86" vaporized=""/>
    <tripinfo id="SN_34" depart="34.00" departLane="3i_0" departPos="4.10" departSpeed="0.00" departDelay="0.00" arrival="121.00" arrivalLane="4o_0" arrivalPos="492.80" arrivalSpeed="11.93" duration="87.00" routeLength="995.90" waitingTime="6.00" waitingCount="1" stopTime="0.00" timeLoss="21.50" rerouteNo="0" devices="tripinfo_SN_34" vType="car" speedFactor="1.09" vaporized=""/>
    <tripinfo id="EW_2" depart="5.00" departLane="4i_0" departPos="10.10" departSpeed="0.00" departDelay="3.00" arrival="124.00" arrivalLane="1o_0" arrivalPos="492.80" arrivalSpeed="10.48" duration="119.00" routeLength="984.53" waitingTime="27.00" waitingCount="1" stopTime="0.00" timeLoss="46.52" rerouteNo="0" devices="tripinfo_EW_2" vType="truck" speedFactor="0.97" vaporized=""/>
    <tripinfo id="WE_41" depart="41.00" departLane="1i_0" departPos="4.10" departSpeed="0.00" departDelay="0.00" arrival="128.00" arrivalLane="4o_0" arrivalPos="492.80" arrivalSpeed="9.64" duration="87.00" routeLength="995.70" waitingTime="0.00" waitingCount="0" stopTime="0.00" timeLoss="10.60" rerouteNo="0" devices="tripinfo_WE_41" vType="car" speedFactor="0.93" vaporized=""/>
    <tripinfo id="WE_52" depart="52.00" departLane="1i_0" departPos="4.10" departSpeed="0.00" departDelay="0.00" arrival="129.00" arrivalLane="3o_0" arrivalPos="492.80" arrivalSpeed="11.26" duration="77.00" routeLength="990.53" waitingTime="0.00" waitingCount="0" stopTime="0.00" timeLoss="7.71" rerouteNo="0" devices="tripinfo_WE_52" vType="car" speedFactor="1.02" vaporized=""/>
    <tripinfo id="SN_38" depart="38.00" departLane="3i_0" departPos="4.10" departSpeed="0.00" departDelay="0.00" arrival="130.00" arrivalLane="4o_0" arrivalPos="492.80" arrivalSpeed="11.44" duration="92.00" routeLength="995.90" waitingTime="3.00" waitingCount="2" stopTime="0.00" timeLoss="28.64" rerouteNo="0" devices="tripinfo_SN_38" vType="car" speedFactor="1.12" vaporized=""/>
    <tripinfo id="NS_50" depart="50.00" departLane="2i_0" departPos="4.10" departSpeed="0.00" departDelay="0.00" arrival="131.00" arrivalLane="3o_0" arrivalPos="492.80" arrivalSpeed="12.35" duration="81.00" routeLength="995.70" waitingTime="3.00" waitingCount="1" stopTime="0.00" timeLoss="19.72" rerouteNo="0" devices="tripinfo_NS_50" vType="car" speedFactor="1.16" vaporized=""/>
    <tripinfo id="EW_38" depart="38.00" departLane="4i_0" departPos="10.10" departSpeed="0.00" departDelay="0.00" arrival="136.00" arrivalLane="2o_0" arrivalPos="492.80" arrivalSpeed="11.30" duration="98.00" routeLength="989.70" waitingTime="8.00" waitingCount="1" stopTime="0.00" timeLoss="28.85" rerouteNo="0" devices="tripinfo_EW_38" vType="truck" speedFactor="1.02" vaporized=""/>
    <tripinfo id="SN_40" depart="41.00" departLane="3i_0" departPos="4.10" departSpeed="0.00" departDelay="1.00" arrival="139.00" arrivalLane="1o_0" arrivalPos="492.80" arrivalSpeed="10.92" duration="98.00" routeLength="995.70" waitingTime="4.00" waitingCount="1" stopTime="0.00" timeLoss="26.10" rerouteNo="0" devices="tripinfo_SN_40" vType="car" speedFactor="0.99" vaporized=""/>
    <tripinfo id="WE_54" depart="55.00" departLane="1i_0" departPos="4.10" departSpeed="0.00" departDelay="1.00" arrival="145.00" arrivalLane="4o_0" arrivalPos="492.80" arrivalSpeed="11.22" duration="90.00" routeLength="995.70" waitingTime="4.00" waitingCount="1" stopTime="0.00" timeLoss="19.98" rerouteNo="0" devices="tripinfo_WE_54" vType="car" speedFactor="1.01" vaporized=""/>
    <tripinfo id="NS_55" depart="55.00" departLane="2i_0" departPos="4.10" departSpeed="0.00" departDelay="0.00" arrival="146.00" arrivalLane="1o_0" arrivalPos="492.80" arrivalSpeed="9.81" duration="91.00" routeLength="995.90" waitingTime="0.00" waitingCount="0" stopTime="0.00" timeLoss="11.53" rerouteNo="0" devices="tripinfo_NS_55" vType="car" speedFactor="0.89" vaporized=""/>
    <tripinfo id="WE_77" depart="77.00" departLane="1i_0" departPos="4.10" departSpeed="0.00" departDelay="0.00" arrival="152.00" arrivalLane="2o_0" arrivalPos="492.80" arrivalSpeed="12.25" duration="75.00" routeLength="995.90" waitingTime="0.00" waitingCount="0" stopTime="0.00" timeLoss="14.39" rerouteNo="0" devices="tripinfo_WE_77" vType="car" speedFactor="1.18" vaporized=""/>
    <tripinfo id="NS_67" depart="67.00" departLane="2i_0" departPos="4.10" departSpeed="0.00" departDelay="0.00" arrival="153.00" arrivalLane="4o_0" arrivalPos="492.80" arrivalSpeed="9.48" duration="86.00" routeLength="990.53" waitingTime="0.00" waitingCount="0" stopTime="0.00" timeLoss="8.36" rerouteNo="0" devices="tripinfo_NS_67" vType="car" speedFactor="0.92" vaporized=""/>
    <tripinfo id="WE_71" depart="71.00" departLane="1i_0" departPos="4.10" departSpeed="0.00" departDelay="0.00" arrival="154.00" arrivalLane="4o_0" arrivalPos="492.80" arrivalSpeed="10.99" duration="83.00" routeLength="995.70" waitingTime="1.00" waitingCount="1" stopTime="0.00" timeLoss="20.52" rerouteNo="0" devices="tripinfo_WE_71" vType="car" speedFactor="1.13" vaporized=""/>
    <tripinfo id="EW_43" depart="43.00" departLane="4i_0" departPos="4.10" departSpeed="0.00" departDelay="0.00" arrival="157.00" arrivalLane="3o_0" arrivalPos="492.80" arrivalSpeed="9.31" duration="114.00" routeLength="995.90" waitingTime="11.00" waitingCount="3" stopTime="0.00" timeLoss="32.96" rerouteNo="0" devices="tripinfo_EW_43" vType="car" speedFactor="0.88" vaporized=""/>
    <tripinfo id="EW_60" depart="60.00" departLane="4i_0" departPos="10.10" departSpeed="0.00" departDelay="0.00" arrival="160.00" arrivalLane="1o_0" arrivalPos="492.80" arrivalSpeed="9.98" duration="100.00" routeLength="984.53" waitingTime="1.00" waitingCount="1" stopTime="0.00" timeLoss="22.90" rerouteNo="0" devices="tripinfo_EW_60" vType="truck" speedFactor="0.91" vaporized=""/>
    <tripinfo id="EW_79" depart="79.00" departLane="4i_0" departPos="4.10" departSpeed="0.00" departDelay="0.00" arrival="162.00" arrivalLane="1o_0" arrivalPos="492.80" arrivalSpeed="11.61" duration="83.00" routeLength="990.53" waitingTime="0.00" waitingCount="0" stopTime="0.00" timeLoss="21.73" rerouteNo="0" devices="tripinfo_EW_79" vType="car" speedFactor="1.15" vaporized=""/>
    <tripinfo id="EW_68" depart="69.00" departLane="4i_0" departPos="4.10" departSpeed="0.00" departDelay="1.00" arrival="166.00" arrivalLane="3o_0" arrivalPos="492.80" arrivalSpeed="10.14" duration="97.00" routeLength="995.90" waitingTime="0.00" waitingCount="0" stopTime="0.00" timeLoss="21.88" rerouteNo="0" devices="tripinfo_EW_68" vType="car" speedFactor="0.95" vaporized=""/>
    <tripinfo id="EW_66" depart="66.00" departLane="4i_0" departPos="4.10" departSpeed="0.00" departDelay="0.00" arrival="168.00" arrivalLane="2o_0" arrivalPos="492.80" arrivalSpeed="9.65" duration="102.00" routeLength="995.70" waitingTime="0.00" waitingCount="0" stopTime="0.00" timeLoss="20.82" rerouteNo="0" devices="tripinfo_EW_66" vType="car" speedFactor="0.87" vaporized=""/>
    <tripinfo id="EW_71" depart="71.00" departLane="4i_0" departPos="4.10" departSpeed="0.00" departDelay="0.00" arrival="168.00" arrivalLane="3o_0" arrivalPos="492.80" arrivalSpeed="10.30" duration="97.00" routeLength="995.90" waitingTime="1.00" waitingCount="1" stopTime="0.00" timeLoss="20.89" rerouteNo="0" devices="tripinfo_EW_71" vType="car" speedFactor="0.93" vaporized=""/>
    <tripinfo id="WE_98" depart="98.00" departLane="1i_0" departPos="4.10" departSpeed="0.00" departDelay="0.00" arrival="170.00" arrivalLane="2o_0" arrivalPos="492.80" arrivalSpeed="12.54" duration="72.00" routeLength="995.90" waitingTime="0.00" waitingCount="0" stopTime="0.00" timeLoss="11.66" rerouteNo="0" devices="tripinfo_WE_98" vType="car" speedFactor="1.18" vaporized=""/>
    <tripinfo id="SN_43" depart="44.00" departLane="3i_0" departPos="4.10" departSpeed="0.00" departDelay="1.00" arrival="171.00" arrivalLane="1o_0" arrivalPos="492.80" arrivalSpeed="9.54" duration="127.00" routeLength="995.70" waitingTime="25.00" waitingCount="3" stopTime="0.00" timeLoss="51.99" rerouteNo="0" devices="tripinfo_SN_43" vType="car" speedFactor="0.94" vaporized=""/>
    <tripinfo id="WE_91" depart="91.00" departLane="1i_0" departPos="4.10" departSpeed="0.00" departDelay="0.00" arrival="173.00" arrivalLane="3o_0" arrivalPos="492.80" arrivalSpeed="10.18" duration="82.00" routeLength="990.53" waitingTime="0.00" waitingCount="0" stopTime="0.00" timeLoss="10.62" rerouteNo="0" devices="tripinfo_WE_91" vType="car" speedFactor="0.99" vaporized=""/>
    <tripinfo id="SN_49" depart="49.00" departLane="3i_0" departPos="4.10" departSpeed="0.00" departDelay="0.00" arrival="174.00" arrivalLane="1o_0" arrivalPos="492.80" arrivalSpeed="9.45" duration="125.00" routeLength="995.70" waitingTime="24.00" waitingCount="3" stopTime="0.00" timeLoss="49.29" rerouteNo="0" devices="tripinfo_SN_49" vType="car" speedFactor="0.94" vaporized=""/>
    <tripinfo id="SN_54" depart="54.00" departLane="3i_0" departPos="4.10" departSpeed="0.00" departDelay="0.00" arrival="177.00" arrivalLane="4o_0" arrivalPos="492.80" arrivalSpeed="10.55" duration="123.00" routeLength="995.90" waitingTime="21.00" waitingCount="3" stopTime="0.00" timeLoss="49.82" rerouteNo="0" devices="tripinfo_SN_54" vType="car" speedFactor="0.97" vaporized=""/>
    <tripinfo id="NS_94" depart="94.00" departLane="2i_0" departPos="4.10" departSpeed="0.00" departDelay="0.00" arrival="178.00" arrivalLane="4o_0" arrivalPos="492.80" arrivalSpeed="10.04" duration="84.00" routeLength="990.53" waitingTime="4.00" waitingCount="1" stopTime="0.00" timeLoss="14.97" rerouteNo="0" devices="tripinfo_NS_94" vType="car" speedFactor="1.02" vaporized=""/>
    <tripinfo id="SN_82" depart="82.00" departLane="3i_0" departPos="4.10" departSpeed="0.00" departDelay="0.00" arrival="181.00" arrivalLane="2o_0" arrivalPos="492.80" arrivalSpeed="12.21" duration="99.00" routeLength="990.53" waitingTime="10.00" waitingCount="3" stopTime="0.00" timeLoss="38.73" rerouteNo="0" devices="tripinfo_SN_82" vType="car" speedFactor="1.17" vaporized=""/>
    <tripinfo id="NS_103" depart="103.00" departLane="2i_0" departPos="4.10" departSpeed="0.00" departDelay="0.00" arrival="181.00" arrivalLane="3o_0" arrivalPos="492.80" arrivalSpeed="11.78" duration="78.00" routeLength="995.70" waitingTime="0.00" waitingCount="0" stopTime="0.00" timeLoss="13.15" rerouteNo="0" devices="tripinfo_NS_103" vType="car" speedFactor="1.10" vaporized=""/>
    <tripinfo id="SN_79" depart="79.00" departLane="3i_0" departPos="4.10" departSpeed="0.00" departDelay="0.00" arrival="182.00" arrivalLane="4o_0" arrivalPos="492.80" arrivalSpeed="9.97" duration="103.00" routeLength="995.90" waitingTime="11.00" waitingCount="2" stopTime="0.00" timeLoss="32.79" rerouteNo="0" devices="tripinfo_SN_79" vType="car" speedFactor="1.01" vaporized=""/>
    <tripinfo id="SN_94" depart="94.00" departLane="3i_0" departPos="4.10" departSpeed="0.00" departDelay="0.00" arrival="192.00" arrivalLane="2o_0" arrivalPos="492.80" arrivalSpeed="10.26" duration="98.00" routeLength="990.53" waitingTime="0.00" waitingCount="0" stopTime="0.00" timeLoss="25.33" rerouteNo="0" devices="tripinfo_SN_94" vType="car" speedFactor="0.97" vaporized=""/>
    <tripinfo id="SN_108" depart="108.00" departLane="3i_0" departPos="4.10" departSpeed="0.00" departDelay="0.00" arrival="197.00" arrivalLane="4o_0" arrivalPos="492.80" arrivalSpeed="10.20" duration="89.00" routeLength="995.90" waitingTime="1.00" waitingCount="1" stopTime="0.00" timeLoss="20.14" rerouteNo="0" devices="tripinfo_SN_108" vType="car" speedFactor="1.03" vaporized=""/>
    <tripinfo id="NS_108" depart="108.00" departLane="2i_0" departPos="4.10" departSpeed="0.00" departDelay="0.00" arrival="198.00" arrivalLane="1o_0" arrivalPos="492.80" arrivalSpeed="9.84" duration="90.00" routeLength="995.90" waitingTime="1.00" waitingCount="1" stopTime="0.00" timeLoss="11.18" rerouteNo="0" devices="tripinfo_NS_108" vType="car" speedFactor="0.90" vaporized=""/>
    <tripinfo id="EW_120" depart="121.00" departLane="4i_0" departPos="4.10" departSpeed="0.00" departDelay="1.00" arrival="200.00" arrivalLane="1o_0" arrivalPos="492.80" arrivalSpeed="10.65" duration="79.00" routeLength="990.53" waitingTime="0.00" waitingCount="0" stopTime="0.00" timeLoss="11.31" rerouteNo="0" devices="tripinfo_EW_120" vType="car" speedFactor="1.04" vaporized=""/>
    <tripinfo id="WE_116" depart="116.00" departLane="1i_0" departPos="4.10" departSpeed="0.00" departDelay="0.00" arrival="204.00" arrivalLane="4o_0" arrivalPos="492.80" arrivalSpeed="9.67" duration="88.00" routeLength="995.70" waitingTime="0.00" waitingCount="0" stopTime="0.00" timeLoss="14.01" rerouteNo="0" devices="tripinfo_WE_116" vType="car" speedFactor="0.96" vaporized=""/>
    <tripinfo id="SN_117" depart="117.00" departLane="3i_0" departPos="4.10" departSpeed="0.00" departDelay="0.00" arrival="206.00" arrivalLane="4o_0" arrivalPos="492.80" arrivalSpeed="11.69" duration="89.00" routeLength="995.90" waitingTime="1.00" waitingCount="1" stopTime="0.00" timeLoss="23.67" rerouteNo="0" devices="tripinfo_SN_117" vType="car" speedFactor="1.09" vaporized=""/>
    <tripinfo id="SN_122" depart="122.00" departLane="3i_0" departPos="4.10" departSpeed="0.00" departDelay="0.00" arrival="208.00" arrivalLane="2o_0" arrivalPos="492.80" arrivalSpeed="10.67" duration="86.00" routeLength="990.53" waitingTime="2.00" waitingCount="2" stopTime="0.00" timeLoss="18.10" rerouteNo="0" devices="tripinfo_SN_122" vType="car" speedFactor="1.04" vaporized=""/>
    <tripinfo id="NS_130" depart="130.00" departLane="2i_0" departPos="10.10" departSpeed="0.00" departDelay="0.00" arrival="211.00" arrivalLane="4o_0" arrivalPos="492.80" arrivalSpeed="11.18" duration="81.00" routeLength="984.53" waitingTime="0.00" waitingCount="0" stopTime="0.00" timeLoss="13.53" rerouteNo="0" devices="tripinfo_NS_130" vType="truck" speedFactor="1.04" vaporized=""/>
    <tripinfo id="NS_135" depart="136.00" departLane="2i_0" departPos="4.10" departSpeed="0.00" departDelay="1.00" arrival="227.00" arrivalLane="1o_0" arrivalPos="492.80" arrivalSpeed="9.44" duration="91.00" routeLength="995.90" waitingTime="0.00" waitingCount="0" stopTime="0.00" timeLoss="10.10" rerouteNo="0" devices="tripinfo_NS_135" vType="car" speedFactor="0.88" vaporized=""/>
    <tripinfo id="WE_139" depart="139.00" departLane="1i_0" departPos="4.10" departSpeed="0.00" departDelay="0.00" arrival="229.00" arrivalLane="3o_0" arrivalPos="492.80" arrivalSpeed="8.22" duration="90.00" routeLength="990.53" waitingTime="0.00" waitingCount="0" stopTime="0.00" timeLoss="7.63" rerouteNo="0" devices="tripinfo_WE_139" vType="car" speedFactor="0.85" vaporized=""/>
    <tripinfo id="NS_146" depart="146.00" departLane="2i_0" departPos="4.10" departSpeed="0.00" departDelay="0.00" arrival="229.00" arrivalLane="1o_0" arrivalPos="492.80" arrivalSpeed="11.14" duration="83.00" routeLength="995.90" waitingTime="0.00" waitingCount="0" stopTime="0.00" timeLoss="12.76" rerouteNo="0" devices="tripinfo_NS_146" vType="car" speedFactor="1.02" vaporized=""/>
    <tripinfo id="SN_133" depart="133.00" departLane="3i_0" departPos="4.10" departSpeed="0.00" departDelay="0.00" arrival="230.00" arrivalLane="2o_0" arrivalPos="492.80" arrivalSpeed="9.00" duration="97.00" routeLength="990.53" waitingTime="5.00" waitingCount="1" stopTime="0.00" timeLoss="18.59" rerouteNo="0" devices="tripinfo_SN_133" vType="car" speedFactor="0.90" vaporized=""/>
    <tripinfo id="EW_132" depart="132.00" departLane="4i_0" departPos="4.10" departSpeed="0.00" departDelay="0.00" arrival="232.00" arrivalLane="2o_0" arrivalPos="492.80" arrivalSpeed="10.08" duration="100.00" routeLength="995.70" waitingTime="7.00" waitingCount="1" stopTime="0.00" timeLoss="28.59" rerouteNo="0" devices="tripinfo_EW_132" vType="car" speedFactor="1.00" vaporized=""/>
    <tripinfo id="NS_147" depart="149.00" departLane="2i_0" departPos="4.10" departSpeed="0.00" departDelay="2.00" arrival="232.00" arrivalLane="3o_0" arrivalPos="492.80" arrivalSpeed="10.47" duration="83.00" routeLength="995.70" waitingTime="1.00" waitingCount="1" stopTime="0.00" timeLoss="12.39" rerouteNo="0" devices="tripinfo_NS_147" vType="car" speedFactor="1.00" vaporized=""/>
    <tripinfo id="SN_141" depart="141.00" departLane="3i_0" departPos="4.10" departSpeed="0.00" departDelay="0.00" arrival="233.00" arrivalLane="2o_0" arrivalPos="492.80" arrivalSpeed="11.53" duration="92.00" routeLength="990.53" waitingTime="5.00" waitingCount="3" stopTime="0.00" timeLoss="31.96" rerouteNo="0" devices="tripinfo_SN_141" vType="car" speedFactor="1.17" vaporized=""/>
    <tripinfo id="SN_146" depart="146.00" departLane="3i_0" departPos="4.10" departSpeed="0.00" departDelay="0.00" arrival="235.00" arrivalLane="2o_0" arrivalPos="492.80" arrivalSpeed="11.85" duration="89.00" routeLength="990.53" waitingTime="3.00" waitingCount="1" stopTime="0.00" timeLoss="24.65" rerouteNo="0" devices="tripinfo_SN_146" vType="car" speedFactor="1.10" vaporized=""/>
    <tripinfo id="SN_152" depart="152.00" departLane="3i_0" departPos="4.10" departSpeed="0.00" departDelay="0.00" arrival="245.00" arrivalLane="4o_0" arrivalPos="492.80" arrivalSpeed="10.96" duration="93.00" routeLength="995.90" waitingTime="2.00" waitingCount="1" stopTime="0.00" timeLoss="22.21" rerouteNo="0" devices="tripinfo_SN_152" vType="car" speedFactor="1.00" vaporized=""/>
    <tripinfo id="EW_138" depart="138.00" departLane="4i_0" departPos="10.10" departSpeed="0.00" departDelay="0.00" arrival="246.00" arrivalLane="3o_0" arrivalPos="492.80" arrivalSpeed="10.05" duration="108.00" routeLength="989.90" waitingTime="9.00" waitingCount="2" stopTime="0.00" timeLoss="31.45" rerouteNo="0" devices="tripinfo_EW_138" vType="truck" speedFactor="0.93" vaporized=""/>
    <tripinfo id="WE_165" depart="165.00" departLane="1i_0" departPos="4.10" departSpeed="0.00" departDelay="0.00" arrival="248.00" arrivalLane="4o_0" arrivalPos="492.80" arrivalSpeed="10.17" duration="83.00" routeLength="995.70" waitingTime="0.00" waitingCount="0" stopTime="0.00" timeLoss="10.20" rerouteNo="0" devices="tripinfo_WE_165" vType="car" speedFactor="0.97" vaporized=""/>
    <tripinfo id="NS_173" depart="173.00" departLane="2i_0" departPos="4.10" departSpeed="0.00" departDelay="0.00" arrival="248.00" arrivalLane="3o_0" arrivalPos="492.80" arrivalSpeed="11.45" duration="75.00" routeLength="995.70" waitingTime="0.00" waitingCount="0" stopTime="0.00" timeLoss="11.52" rerouteNo="0" devices="tripinfo_NS_173" vType="car" speedFactor="1.12" vaporized=""/>
    <tripinfo id="NS_180" depart="181.00" departLane="2i_0" departPos="4.10" departSpeed="0.00" departDelay="1.00" arrival="259.00" arrivalLane="1o_0" arrivalPos="492.80" arrivalSpeed="11.25" duration="78.00" routeLength="995.90" waitingTime="0.00" waitingCount="0" stopTime="0.00" timeLoss="8.23" rerouteNo="0" devices="tripinfo_NS_180" vType="car" speedFactor="1.02" vaporized=""/>
    <tripinfo id="NS_188" depart="188.00" departLane="2i_0" departPos="4.10" departSpeed="0.00" departDelay="0.00" arrival="273.00" arrivalLane="1o_0" arrivalPos="492.80" arrivalSpeed="9.72" duration="85.00" routeLength="995.90" waitingTime="0.00" waitingCount="0" stopTime="0.00" timeLoss="9.10" rerouteNo="0" devices="tripinfo_NS_188" vType="car" speedFactor="0.94" vaporized=""/>
    <tripinfo id="NS_200" depart="200.00" departLane="2i_0" departPos="4.10" departSpeed="0.00" departDelay="0.00" arrival="278.00" arrivalLane="3o_0" arrivalPos="492.80" arrivalSpeed="10.90" duration="78.00" routeLength="995.70" waitingTime="0.00" waitingCount="0" stopTime="0.00" timeLoss="10.10" rerouteNo="0" devices="tripinfo_NS_200" vType="car" speedFactor="1.04" vaporized=""/>
    <tripinfo id="WE_192" depart="192.00" departLane="1i_0" departPos="4.10" departSpeed="0.00" departDelay="0.00" arrival="280.00" arrivalLane="2o_0" arrivalPos="492.80" arrivalSpeed="9.52" duration="88.00" routeLength="995.90" waitingTime="0.00" waitingCount="0" stopTime="0.00" timeLoss="7.98" rerouteNo="0" devices="tripinfo_WE_192" vType="car" speedFactor="0.88" vaporized=""/>
    <tripinfo id="WE_195" depart="195.00" departLane="1i_0" departPos="4.10" departSpeed="0.00" departDelay="0.00" arrival="282.00" arrivalLane="2o_0" arrivalPos="492.80" arrivalSpeed="9.26" duration="87.00" routeLength="995.90" waitingTime="0.00" waitingCount="0" stopTime="0.00" timeLoss="9.57" rerouteNo="0" devices="tripinfo_WE_195" vType="car" speedFactor="0.91" vaporized=""/>
    <tripinfo id="WE_217" depart="217.00" departLane="1i_0" departPos="4.10" departSpeed="0.00" departDelay="0.00" arrival="299.00" arrivalLane="2o_0" arrivalPos="492.80" arrivalSpeed="9.66" duration="82.00" routeLength="995.90" waitingTime="0.00" waitingCount="0" stopTime="0.00" timeLoss="9.16" rerouteNo="0" devices="tripinfo_WE_217" vType="car" speedFactor="0.97" vaporized=""/>
    <tripinfo id="NS_217" depart="217.00" departLane="2i_0" departPos="10.10" departSpeed="0.00" departDelay="0.00" arrival="301.00" arrivalLane="4o_0" arrivalPos="492.80" arrivalSpeed="10.41" duration="84.00" routeLength="984.53" waitingTime="0.00" waitingCount="0" stopTime="0.00" timeLoss="11.71" rerouteNo="0" devices="tripinfo_NS_217" vType="truck" speedFactor="0.97" vaporized=""/>
    <tripinfo id="NS_225" depart="225.00" departLane="2i_0" departPos="4.10" departSpeed="0.00" departDelay="0.00" arrival="310.00" arrivalLane="3o_0" arrivalPos="492.80" arrivalSpeed="10.44" duration="85.00" routeLength="995.70" waitingTime="0.00" waitingCount="0" stopTime="0.00" timeLoss="10.29" rerouteNo="0" devices="tripinfo_NS_225" vType="car" speedFactor="0.96" vaporized=""/>
    <tripinfo id="WE_238" depart="238.00" departLane="1i_0" departPos="4.10" departSpeed="0.00" departDelay="0.00" arrival="319.00" arrivalLane="4o_0" arrivalPos="492.80" arrivalSpeed="10.68" duration="81.00" routeLength="995.70" waitingTime="0.00" waitingCount="0" stopTime="0.00" timeLoss="10.84" rerouteNo="0" devices="tripinfo_WE_238" vType="car" speedFactor="1.01" vaporized=""/>
    <tripinfo id="NS_250" depart="250.00" departLane="2i_0" departPos="4.10" departSpeed="0.00" departDelay="0.00" arrival="328.00" arrivalLane="4o_0" arrivalPos="492.80" arrivalSpeed="10.04" duration="78.00" routeLength="990.53" waitingTime="0.00" waitingCount="0" stopTime="0.00" timeLoss="8.59" rerouteNo="0" devices="tripinfo_NS_250" vType="car" speedFactor="1.02" vaporized=""/>
    <tripinfo id="NS_255" depart="255.00" departLane="2i_0" departPos="4.10" departSpeed="0.00" departDelay="0.00" arrival="337.00" arrivalLane="3o_0" arrivalPos="492.80" arrivalSpeed="11.74" duration="82.00" routeLength="995.70" waitingTime="5.00" waitingCount="1" stopTime="0.00" timeLoss="19.96" rerouteNo="0" devices="tripinfo_NS_255" vType="car" speedFactor="1.15" vaporized=""/>
    <tripinfo id="WE_250" depart="250.00" departLane="1i_0" departPos="4.10" departSpeed="0.00" departDelay="0.00" arrival="344.00" arrivalLane="4o_0" arrivalPos="492.80" arrivalSpeed="10.72" duration="94.00" routeLength="995.70" waitingTime="8.00" waitingCount="1" stopTime="0.00" timeLoss="22.70" rerouteNo="0" devices="tripinfo_WE_250" vType="car" speedFactor="1.00" vaporized=""/>
    <tripinfo id="WE_256" depart="256.00" departLane="1i_0" departPos="4.10" departSpeed="0.00" departDelay="0.00" arrival="346.00" arrivalLane="2o_0" arrivalPos="492.80" arrivalSpeed="10.52" duration="90.00" routeLength="995.90" waitingTime="5.00" waitingCount="1" stopTime="0.00" timeLoss="19.19" rerouteNo="0" devices="tripinfo_WE_256" vType="car" speedFactor="1.00" vaporized=""/>
    <tripinfo id="WE_261" depart="261.00" departLane="1i_0" departPos="4.10" departSpeed="0.00" departDelay="0.00" arrival="348.00" arrivalLane="2o_0" arrivalPos="492.80" arrivalSpeed="10.75" duration="87.00" routeLength="995.90" waitingTime="1.00" waitingCount="1" stopTime="0.00" timeLoss="18.74" rerouteNo="0" devices="tripinfo_WE_261" vType="car" speedFactor="1.04" vaporized=""/>
    <tripinfo id="NS_279" depart="280.00" departLane="2i_0" departPos="4.10" departSpeed="0.00" departDelay="1.00" arrival="355.00" arrivalLane="1o_0" arrivalPos="492.80" arrivalSpeed="10.60" duration="75.00" routeLength="995.90" waitingTime="0.00" waitingCount="0" stopTime="0.00" timeLoss="8.01" rerouteNo="0" devices="tripinfo_NS_279" vType="car" speedFactor="1.06" vaporized=""/>
    <tripinfo id="NS_291" depart="291.00" departLane="2i_0" departPos="4.10" departSpeed="0.00" departDelay="0.00" arrival="362.00" arrivalLane="4o_0" arrivalPos="492.80" arrivalSpeed="11.28" duration="71.00" routeLength="990.53" waitingTime="0.00" waitingCount="0" stopTime="0.00" timeLoss="8.25" rerouteNo="0" devices="tripinfo_NS_291" vType="car" speedFactor="1.12" vaporized=""/>
    <tripinfo id="NS_297" depart="297.00" departLane="2i_0" departPos="4.10" departSpeed="0.00" departDelay="0.00" arrival="375.00" arrivalLane="3o_0" arrivalPos="492.80" arrivalSpeed="11.25" duration="78.00" routeLength="995.70" waitingTime="0.00" waitingCount="0" stopTime="0.00" timeLoss="10.99" rerouteNo="0" devices="tripinfo_NS_297" vType="car" speedFactor="1.06" vaporized=""/>
    <tripinfo id="WE_270" depart="270.00" departLane="1i_0" departPos="10.10" departSpeed="0.00" departDelay="0.00" arrival="379.00" arrivalLane="4o_0" arrivalPos="492.80" arrivalSpeed="11.39" duration="109.00" routeLength="989.70" waitingTime="19.00" waitingCount="1" stopTime="0.00" timeLoss="40.89" rerouteNo="0" devices="tripinfo_WE_270" vType="truck" speedFactor="1.05" vaporized=""/>