<?xml version="1.0" encoding="UTF-8"?>

<!-- generated on 2024-05-05 22:48:48 by Eclipse SUMO sumo Version 1.19.0
<configuration xmlns:xsi="http://www.w3.org/2001/XMLSchema-instance" xsi:noNamespaceSchemaLocation="http://sumo.dlr.de/xsd/sumoConfiguration.xsd">

    <input>
        <net-file value="twoone.net.xml"/>
        <route-files value="route_gen.rou.xml"/>
    </input>

    <output>
        <tripinfo-output value="tripinfo_epi381.xml"/>
    </output>

    <report>
        <no-warnings value="true"/>
    </report>

    <traci_server>
        <remote-port value="40159"/>
    </traci_server>

</configuration>
-->

<tripinfos xmlns:xsi="http://www.w3.org/2001/XMLSchema-instance" xsi:noNamespaceSchemaLocation="http://sumo.dlr.de/xsd/tripinfo_file.xsd">
    <tripinfo id="WE_2" depart="2.00" departLane="1i_0" departPos="4.10" departSpeed="0.00" departDelay="0.00" arrival="76.00" arrivalLane="2o_0" arrivalPos="492.80" arrivalSpeed="11.18" duration="74.00" routeLength="995.90" waitingTime="0.00" waitingCount="0" stopTime="0.00" timeLoss="7.02" rerouteNo="0" devices="tripinfo_WE_2" vType="car" speedFactor="1.06" vaporized=""/>
    <tripinfo id="NS_10" depart="10.00" departLane="2i_0" departPos="4.10" departSpeed="0.00" departDelay="0.00" arrival="83.00" arrivalLane="4o_0" arrivalPos="492.80" arrivalSpeed="11.56" duration="73.00" routeLength="990.53" waitingTime="0.00" waitingCount="0" stopTime="0.00" timeLoss="7.75" rerouteNo="0" devices="tripinfo_NS_10" vType="car" speedFactor="1.08" vaporized=""/>
    <tripinfo id="WE_6" depart="6.00" departLane="1i_0" departPos="4.10" departSpeed="0.00" departDelay="0.00" arrival="92.00" arrivalLane="4o_0" arrivalPos="492.80" arrivalSpeed="10.21" duration="86.00" routeLength="995.70" waitingTime="0.00" waitingCount="0" stopTime="0.00" timeLoss="10.01" rerouteNo="0" devices="tripinfo_WE_6" vType="car" speedFactor="0.94" vaporized=""/>
    <tripinfo id="NS_11" depart="13.00" departLane="2i_0" departPos="4.10" departSpeed="0.00" departDelay="2.00" arrival="93.00" arrivalLane="3o_0" arrivalPos="492.80" arrivalSpeed="10.71" duration="80.00" routeLength="995.70" waitingTime="0.00" waitingCount="0" stopTime="0.00" timeLoss="11.38" rerouteNo="0" devices="tripinfo_NS_11" vType="car" speedFactor="1.03" vaporized=""/>
    <tripinfo id="SN_8" depart="8.00" departLane="3i_0" departPos="4.10" departSpeed="0.00" departDelay="0.00" arrival="94.00" arrivalLane="4o_0" arrivalPos="492.80" arrivalSpeed="11.20" duration="86.00" routeLength="995.90" waitingTime="0.00" waitingCount="0" stopTime="0.00" timeLoss="15.26" rerouteNo="0" devices="tripinfo_SN_8" vType="car" speedFactor="1.01" vaporized=""/>
    <tripinfo id="WE_17" depart="17.00" departLane="1i_0" departPos="4.10" departSpeed="0.00" departDelay="0.00" arrival="96.00" arrivalLane="4o_0" arrivalPos="492.80" arrivalSpeed="11.39" duration="79.00" routeLength="995.70" waitingTime="0.00" waitingCount="0" stopTime="0.00" timeLoss="11.20" rerouteNo="0" devices="tripinfo_WE_17" vType="car" speedFactor="1.05" vaporized=""/>
    <tripinfo id="EW_12" depart="12.00" departLane="4i_0" departPos="4.10" departSpeed="0.00" departDelay="0.00" arrival="108.00" arrivalLane="1o_0" arrivalPos="492.80" arrivalSpeed="8.19" duration="96.00" routeLength="990.53" waitingTime="0.00" waitingCount="0" stopTime="0.00" timeLoss="10.64" rerouteNo="0" devices="tripinfo_EW_12" vType="car" speedFactor="0.83" vaporized=""/>
    <tripinfo id="SN_17" depart="17.00" departLane="3i_0" departPos="4.10" departSpeed="0.00" departDelay="0.00" arrival="109.00" arrivalLane="4o_0" arrivalPos="492.80" arrivalSpeed="9.76" duration="92.00" routeLength="995.90" waitingTime="1.00" waitingCount="1" stopTime="0.00" timeLoss="12.32" rerouteNo="0" devices="tripinfo_SN_17" vType="car" speedFactor="0.89" vaporized=""/>
    <tripinfo id="NS_38" depart="38.00" departLane="2i_0" departPos="4.10" departSpeed="0.00" departDelay="0.00" arrival="110.00" arrivalLane="3o_0" arrivalPos="492.80" arrivalSpeed="11.89" duration="72.00" routeLength="995.70" waitingTime="0.00" waitingCount="0" stopTime="0.00" timeLoss="8.87" rerouteNo="0" devices="tripinfo_NS_38" vType="car" speedFactor="1.12" vaporized=""/>
    <tripinfo id="SN_32" depart="32.00" departLane="3i_0" departPos="4.10" departSpeed="0.00" departDelay="0.00" arrival="122.00" arrivalLane="2o_0" arrivalPos="492.80" arrivalSpeed="11.94" duration="90.00" routeLength="990.53" waitingTime="13.00" waitingCount="1" stopTime="0.00" timeLoss="25.39" rerouteNo="0" devices="tripinfo_SN_32" vType="car" speedFactor="1.09" vaporized=""/>
    <tripinfo id="EW_24" depart="24.00" departLane="4i_0" departPos="4.10" departSpeed="0.00" departDelay="0.00" arrival="132.00" arrivalLane="2o_0" arrivalPos="492.80" arrivalSpeed="10.41" duration="108.00" routeLength="995.70" waitingTime="18.00" waitingCount="1" stopTime="0.00" timeLoss="32.70" rerouteNo="0" devices="tripinfo_EW_24" vType="car" speedFactor="0.94" vaporized=""/>
    <tripinfo id="SN_33" depart="34.00" departLane="3i_0" departPos="4.10" departSpeed="0.00" departDelay="1.00" arrival="135.00" arrivalLane="1o_0" arrivalPos="492.80" arrivalSpeed="11.22" duration="101.00" routeLength="995.70" waitingTime="11.00" waitingCount="2" stopTime="0.00" timeLoss="31.44" rerouteNo="0" devices="tripinfo_SN_33" vType="car" speedFactor="1.03" vaporized=""/>
    <tripinfo id="WE_44" depart="44.00" departLane="1i_0" departPos="4.10" departSpeed="0.00" departDelay="0.00" arrival="138.00" arrivalLane="2o_0" arrivalPos="492.80" arrivalSpeed="9.46" duration="94.00" routeLength="995.90" waitingTime="0.00" waitingCount="0" stopTime="0.00" timeLoss="13.65" rerouteNo="0" devices="tripinfo_WE_44" vType="car" speedFactor="0.88" vaporized=""/>
    <tripinfo id="WE_57" depart="57.00" departLane="1i_0" departPos="4.10" departSpeed="0.00" departDelay="0.00" arrival="139.00" arrivalLane="4o_0" arrivalPos="492.80" arrivalSpeed="9.64" duration="82.00" routeLength="995.70" waitingTime="0.00" waitingCount="0" stopTime="0.00" timeLoss="9.48" rerouteNo="0" devices="tripinfo_WE_57" vType="car" speedFactor="0.97" vaporized=""/>
    <tripinfo id="EW_26" depart="26.00" departLane="4i_0" departPos="4.10" departSpeed="0.00" departDelay="0.00" arrival="142.00" arrivalLane="2o_0" arrivalPos="492.80" arrivalSpeed="9.12" duration="116.00" routeLength="995.70" waitingTime="14.00" waitingCount="1" stopTime="0.00" timeLoss="33.64" rerouteNo="0" devices="tripinfo_EW_26" vType="car" speedFactor="0.86" vaporized=""/>
    <tripinfo id="EW_37" depart="37.00" departLane="4i_0" departPos="4.10" departSpeed="0.00" departDelay="0.00" arrival="143.00" arrivalLane="1o_0" arrivalPos="492.80" arrivalSpeed="11.41" duration="106.00" routeLength="990.53" waitingTime="18.00" waitingCount="2" stopTime="0.00" timeLoss="38.88" rerouteNo="0" devices="tripinfo_EW_37" vType="car" speedFactor="1.05" vaporized=""/>
    <tripinfo id="SN_41" depart="41.00" departLane="3i_0" departPos="4.10" departSpeed="0.00" departDelay="0.00" arrival="147.00" arrivalLane="2o_0" arrivalPos="492.80" arrivalSpeed="10.66" duration="106.00" routeLength="990.53" waitingTime="9.00" waitingCount="2" stopTime="0.00" timeLoss="34.25" rerouteNo="0" devices="tripinfo_SN_41" vType="car" speedFactor="0.99" vaporized=""/>
    <tripinfo id="SN_42" depart="44.00" departLane="3i_0" departPos="4.10" departSpeed="0.00" departDelay="2.00" arrival="152.00" arrivalLane="2o_0" arrivalPos="492.80" arrivalSpeed="9.30" duration="108.00" routeLength="990.53" waitingTime="7.00" waitingCount="2" stopTime="0.00" timeLoss="31.56" rerouteNo="0" devices="tripinfo_SN_42" vType="car" speedFactor="0.93" vaporized=""/>
    <tripinfo id="EW_44" depart="44.00" departLane="4i_0" departPos="4.10" departSpeed="0.00" departDelay="0.00" arrival="154.00" arrivalLane="2o_0" arrivalPos="492.80" arrivalSpeed="9.93" duration="110.00" routeLength="995.70" waitingTime="8.00" waitingCount="2" stopTime="0.00" timeLoss="34.42" rerouteNo="0" devices="tripinfo_EW_44" vType="car" speedFactor="0.94" vaporized=""/>
    <tripinfo id="EW_54" depart="54.00" departLane="4i_0" departPos="4.10" departSpeed="0.00" departDelay="0.00" arrival="156.00" arrivalLane="1o_0" arrivalPos="492.80" arrivalSpeed="10.97" duration="102.00" routeLength="990.53" waitingTime="9.00" waitingCount="2" stopTime="0.00" timeLoss="31.97" rerouteNo="0" devices="tripinfo_EW_54" vType="car" speedFactor="1.01" vaporized=""/>
    <tripinfo id="WE_66" depart="66.00" departLane="1i_0" departPos="4.10" departSpeed="0.00" departDelay="0.00" arrival="157.00" arrivalLane="2o_0" arrivalPos="492.80" arrivalSpeed="10.00" duration="91.00" routeLength="995.90" waitingTime="0.00" waitingCount="0" stopTime="0.00" timeLoss="13.39" rerouteNo="0" devices="tripinfo_WE_66" vType="car" speedFactor="0.92" vaporized=""/>
    <tripinfo id="WE_73" depart="73.00" departLane="1i_0" departPos="4.10" departSpeed="0.00" departDelay="0.00" arrival="161.00" arrivalLane="4o_0" arrivalPos="492.80" arrivalSpeed="10.18" duration="88.00" routeLength="995.70" waitingTime="1.00" waitingCount="1" stopTime="0.00" timeLoss="13.28" rerouteNo="0" devices="tripinfo_WE_73" vType="car" speedFactor="0.95" vaporized=""/>
    <tripinfo id="SN_44" depart="47.00" departLane="3i_0" departPos="4.10" departSpeed="0.00" departDelay="3.00" arrival="162.00" arrivalLane="1o_0" arrivalPos="492.80" arrivalSpeed="9.91" duration="115.00" routeLength="995.70" waitingTime="7.00" waitingCount="2" stopTime="0.00" timeLoss="39.43" rerouteNo="0" devices="tripinfo_SN_44" vType="car" speedFactor="0.94" vaporized=""/>
    <tripinfo id="WE_84" depart="84.00" departLane="1i_0" departPos="4.10" departSpeed="0.00" departDelay="0.00" arrival="166.00" arrivalLane="4o_0" arrivalPos="492.80" arrivalSpeed="12.96" duration="82.00" routeLength="995.70" waitingTime="3.00" waitingCount="2" stopTime="0.00" timeLoss="21.26" rerouteNo="0" devices="tripinfo_WE_84" vType="car" speedFactor="1.18" vaporized=""/>
    <tripinfo id="EW_61" depart="61.00" departLane="4i_0" departPos="4.10" departSpeed="0.00" departDelay="0.00" arrival="170.00" arrivalLane="1o_0" arrivalPos="492.80" arrivalSpeed="9.20" duration="109.00" routeLength="990.53" waitingTime="6.00" waitingCount="3" stopTime="0.00" timeLoss="28.23" rerouteNo="0" devices="tripinfo_EW_61" vType="car" speedFactor="0.87" vaporized=""/>
    <tripinfo id="SN_51" depart="52.00" departLane="3i_0" departPos="4.10" departSpeed="0.00" departDelay="1.00" arrival="171.00" arrivalLane="2o_0" arrivalPos="492.80" arrivalSpeed="10.05" duration="119.00" routeLength="990.53" waitingTime="7.00" waitingCount="3" stopTime="0.00" timeLoss="49.37" rerouteNo="0" devices="tripinfo_SN_51" vType="car" speedFactor="1.02" vaporized=""/>
    <tripinfo id="SN_46" depart="50.00" departLane="3i_0" departPos="4.10" departSpeed="0.00" departDelay="4.00" arrival="172.00" arrivalLane="1o_0" arrivalPos="492.80" arrivalSpeed="12.80" duration="122.00" routeLength="995.70" waitingTime="9.00" waitingCount="4" stopTime="0.00" timeLoss="60.32" rerouteNo="0" devices="tripinfo_SN_46" vType="car" speedFactor="1.16" vaporized=""/>
    <tripinfo id="NS_80" depart="80.00" departLane="2i_0" departPos="4.10" departSpeed="0.00" departDelay="0.00" arrival="173.00" arrivalLane="3o_0" arrivalPos="492.80" arrivalSpeed="9.71" duration="93.00" routeLength="995.70" waitingTime="4.00" waitingCount="2" stopTime="0.00" timeLoss="16.72" rerouteNo="0" devices="tripinfo_NS_80" vType="car" speedFactor="0.93" vaporized=""/>
    <tripinfo id="NS_84" depart="84.00" departLane="2i_0" departPos="4.10" departSpeed="0.00" departDelay="0.00" arrival="173.00" arrivalLane="1o_0" arrivalPos="492.80" arrivalSpeed="11.59" duration="89.00" routeLength="995.90" waitingTime="3.00" waitingCount="2" stopTime="0.00" timeLoss="27.90" rerouteNo="0" devices="tripinfo_NS_84" vType="car" speedFactor="1.15" vaporized=""/>
    <tripinfo id="WE_85" depart="87.00" departLane="1i_0" departPos="4.10" departSpeed="0.00" departDelay="2.00" arrival="175.00" arrivalLane="3o_0" arrivalPos="492.80" arrivalSpeed="10.56" duration="88.00" routeLength="990.53" waitingTime="1.00" waitingCount="1" stopTime="0.00" timeLoss="17.50" rerouteNo="0" devices="tripinfo_WE_85" vType="car" speedFactor="1.01" vaporized=""/>
    <tripinfo id="EW_91" depart="94.00" departLane="4i_0" departPos="10.10" departSpeed="0.00" departDelay="3.00" arrival="176.00" arrivalLane="1o_0" arrivalPos="492.80" arrivalSpeed="11.76" duration="82.00" routeLength="984.53" waitingTime="0.00" waitingCount="0" stopTime="0.00" timeLoss="15.76" rerouteNo="0" devices="tripinfo_EW_91" vType="truck" speedFactor="1.09" vaporized=""/>
    <tripinfo id="NS_94" depart="94.00" departLane="2i_0" departPos="10.10" departSpeed="0.00" departDelay="0.00" arrival="178.00" arrivalLane="4o_0" arrivalPos="492.80" arrivalSpeed="10.67" duration="84.00" routeLength="984.53" waitingTime="0.00" waitingCount="0" stopTime="0.00" timeLoss="13.16" rerouteNo="0" devices="tripinfo_NS_94" vType="truck" speedFactor="1.00" vaporized=""/>
    <tripinfo id="NS_104" depart="104.00" departLane="2i_0" departPos="4.10" departSpeed="0.00" departDelay="0.00" arrival="180.00" arrivalLane="4o_0" arrivalPos="492.80" arrivalSpeed="12.23" duration="76.00" routeLength="990.53" waitingTime="0.00" waitingCount="0" stopTime="0.00" timeLoss="11.83" rerouteNo="0" devices="tripinfo_NS_104" vType="car" speedFactor="1.10" vaporized=""/>
    <tripinfo id="WE_104" depart="104.00" departLane="1i_0" departPos="4.10" departSpeed="0.00" departDelay="0.00" arrival="182.00" arrivalLane="4o_0" arrivalPos="492.80" arrivalSpeed="12.86" duration="78.00" routeLength="995.70" waitingTime="0.00" waitingCount="0" stopTime="0.00" timeLoss="17.34" rerouteNo="0" devices="tripinfo_WE_104" vType="car" speedFactor="1.18" vaporized=""/>
    <tripinfo id="SN_57" depart="57.00" departLane="3i_0" departPos="10.10" departSpeed="0.00" departDelay="0.00" arrival="184.00" arrivalLane="2o_0" arrivalPos="492.80" arrivalSpeed="9.92" duration="127.00" routeLength="984.53" waitingTime="6.00" waitingCount="4" stopTime="0.00" timeLoss="52.23" rerouteNo="0" devices="tripinfo_SN_57" vType="truck" speedFactor="0.94" vaporized=""/>
    <tripinfo id="WE_102" depart="102.00" departLane="1i_0" departPos="4.10" departSpeed="0.00" departDelay="0.00" arrival="187.00" arrivalLane="2o_0" arrivalPos="492.80" arrivalSpeed="10.32" duration="85.00" routeLength="995.90" waitingTime="0.00" waitingCount="0" stopTime="0.00" timeLoss="11.79" rerouteNo="0" devices="tripinfo_WE_102" vType="car" speedFactor="0.97" vaporized=""/>
    <tripinfo id="EW_98" depart="98.00" departLane="4i_0" departPos="4.10" departSpeed="0.00" departDelay="0.00" arrival="190.00" arrivalLane="3o_0" arrivalPos="492.80" arrivalSpeed="10.60" duration="92.00" routeLength="995.90" waitingTime="3.00" waitingCount="1" stopTime="0.00" timeLoss="22.46" rerouteNo="0" devices="tripinfo_EW_98" vType="car" speedFactor="1.02" vaporized=""/>
    <tripinfo id="NS_119" depart="119.00" departLane="2i_0" departPos="4.10" departSpeed="0.00" departDelay="0.00" arrival="192.00" arrivalLane="1o_0" arrivalPos="492.80" arrivalSpeed="10.85" duration="73.00" routeLength="995.90" waitingTime="0.00" waitingCount="0" stopTime="0.00" timeLoss="7.57" rerouteNo="0" devices="tripinfo_NS_119" vType="car" speedFactor="1.09" vaporized=""/>
    <tripinfo id="WE_114" depart="114.00" departLane="1i_0" departPos="10.10" departSpeed="0.00" departDelay="0.00" arrival="201.00" arrivalLane="2o_0" arrivalPos="492.80" arrivalSpeed="10.55" duration="87.00" routeLength="989.90" waitingTime="0.00" waitingCount="0" stopTime="0.00" timeLoss="14.55" rerouteNo="0" devices="tripinfo_WE_114" vType="truck" speedFactor="0.98" vaporized=""/>
    <tripinfo id="SN_60" depart="61.00" departLane="3i_0" departPos="4.10" departSpeed="0.00" departDelay="1.00" arrival="202.00" arrivalLane="4o_0" arrivalPos="492.80" arrivalSpeed="8.64" duration="141.00" routeLength="995.90" waitingTime="7.00" waitingCount="4" stopTime="0.00" timeLoss="54.84" rerouteNo="0" devices="tripinfo_SN_60" vType="car" speedFactor="0.83" vaporized=""/>
    <tripinfo id="WE_118" depart="118.00" departLane="1i_0" departPos="4.10" departSpeed="0.00" departDelay="0.00" arrival="203.00" arrivalLane="2o_0" arrivalPos="492.80" arrivalSpeed="11.89" duration="85.00" routeLength="995.90" waitingTime="0.00" waitingCount="0" stopTime="0.00" timeLoss="20.00" rerouteNo="0" devices="tripinfo_WE_118" vType="car" speedFactor="1.09" vaporized=""/>
    <tripinfo id="WE_110" depart="110.00" departLane="1i_0" departPos="4.10" departSpeed="0.00" departDelay="0.00" arrival="204.00" arrivalLane="4o_0" arrivalPos="492.80" arrivalSpeed="11.44" duration="94.00" routeLength="995.70" waitingTime="5.00" waitingCount="1" stopTime="0.00" timeLoss="24.62" rerouteNo="0" devices="tripinfo_WE_110" vType="car" speedFactor="1.03" vaporized=""/>
    <tripinfo id="SN_76" depart="76.00" departLane="3i_0" departPos="4.10" departSpeed="0.00" departDelay="0.00" arrival="205.00" arrivalLane="2o_0" arrivalPos="492.80" arrivalSpeed="11.99" duration="129.00" routeLength="990.53" waitingTime="13.00" waitingCount="3" stopTime="0.00" timeLoss="66.39" rerouteNo="0" devices="tripinfo_SN_76" vType="car" speedFactor="1.13" vaporized=""/>
    <tripinfo id="EW_107" depart="107.00" departLane="4i_0" departPos="4.10" departSpeed="0.00" departDelay="0.00" arrival="211.00" arrivalLane="1o_0" arrivalPos="492.80" arrivalSpeed="9.07" duration="104.00" routeLength="990.53" waitingTime="10.00" waitingCount="1" stopTime="0.00" timeLoss="25.59" rerouteNo="0" devices="tripinfo_EW_107" vType="car" speedFactor="0.90" vaporized=""/>
    <tripinfo id="WE_122" depart="122.00" departLane="1i_0" departPos="4.10" departSpeed="0.00" departDelay="0.00" arrival="213.00" arrivalLane="2o_0" arrivalPos="492.80" arrivalSpeed="9.97" duration="91.00" routeLength="995.90" waitingTime="0.00" waitingCount="0" stopTime="0.00" timeLoss="12.58" rerouteNo="0" devices="tripinfo_WE_122" vType="car" speedFactor="0.90" vaporized=""/>
    <tripinfo id="EW_119" depart="119.00" departLane="4i_0" departPos="4.10" departSpeed="0.00" departDelay="0.00" arrival="215.00" arrivalLane="2o_0" arrivalPos="492.80" arrivalSpeed="10.81" duration="96.00" routeLength="995.70" waitingTime="5.00" waitingCount="1" stopTime="0.00" timeLoss="28.01" rerouteNo="0" devices="tripinfo_EW_119" vType="car" speedFactor="1.04" vaporized=""/>
    <tripinfo id="SN_118" depart="118.00" departLane="3i_0" departPos="4.10" departSpeed="0.00" departDelay="0.00" arrival="217.00" arrivalLane="2o_0" arrivalPos="492.80" arrivalSpeed="10.30" duration="99.00" routeLength="990.53" waitingTime="8.00" waitingCount="2" stopTime="0.00" timeLoss="30.92" rerouteNo="0" devices="tripinfo_SN_118" vType="car" speedFactor="1.04" vaporized=""/>
    <tripinfo id="WE_133" depart="135.00" departLane="1i_0" departPos="4.10" departSpeed="0.00" departDelay="2.00" arrival="218.00" arrivalLane="2o_0" arrivalPos="492.80" arrivalSpeed="12.52" duration="83.00" routeLength="995.90" waitingTime="0.00" waitingCount="0" stopTime="0.00" timeLoss="22.66" rerouteNo="0" devices="tripinfo_WE_133" vType="car" speedFactor="1.17" vaporized=""/>
    <tripinfo id="WE_124" depart="125.00" departLane="1i_0" departPos="4.10" departSpeed="0.00" departDelay="1.00" arrival="219.00" arrivalLane="3o_0" arrivalPos="492.80" arrivalSpeed="9.14" duration="94.00" routeLength="990.53" waitingTime="0.00" waitingCount="0" stopTime="0.00" timeLoss="10.45" rerouteNo="0" devices="tripinfo_WE_124" vType="car" speedFactor="0.85" vaporized=""/>
    <tripinfo id="SN_119" depart="121.00" departLane="3i_0" departPos="4.10" departSpeed="0.00" departDelay="2.00" arrival="220.00" arrivalLane="1o_0" arrivalPos="492.80" arrivalSpeed="10.02" duration="99.00" routeLength="995.70" waitingTime="3.00" waitingCount="2" stopTime="0.00" timeLoss="28.07" rerouteNo="0" devices="tripinfo_SN_119" vType="car" speedFactor="1.00" vaporized=""/>
    <tripinfo id="NS_123" depart="123.00" departLane="2i_0" departPos="4.10" departSpeed="0.00" departDelay="0.00" arrival="222.00" arrivalLane="3o_0" arrivalPos="492.80" arrivalSpeed="9.00" duration="99.00" routeLength="995.70" waitingTime="5.00" waitingCount="1" stopTime="0.00" timeLoss="17.90" rerouteNo="0" devices="tripinfo_NS_123" vType="car" speedFactor="0.88" vaporized=""/>
    <tripinfo id="WE_140" depart="140.00" departLane="1i_0" departPos="4.10" departSpeed="0.00" departDelay="0.00" arrival="224.00" arrivalLane="2o_0" arrivalPos="492.80" arrivalSpeed="10.76" duration="84.00" routeLength="995.90" waitingTime="1.00" waitingCount="1" stopTime="0.00" timeLoss="13.24" rerouteNo="0" devices="tripinfo_WE_140" vType="car" speedFactor="1.00" vaporized=""/>
    <tripinfo id="WE_150" depart="150.00" departLane="1i_0" departPos="4.10" departSpeed="0.00" departDelay="0.00" arrival="228.00" arrivalLane="3o_0" arrivalPos="492.80" arrivalSpeed="11.10" duration="78.00" routeLength="990.53" waitingTime="0.00" waitingCount="0" stopTime="0.00" timeLoss="8.21" rerouteNo="0" devices="tripinfo_WE_150" vType="car" speedFactor="1.02" vaporized=""/>
    <tripinfo id="NS_137" depart="138.00" departLane="2i_0" departPos="4.10" departSpeed="0.00" departDelay="1.00" arrival="231.00" arrivalLane="3o_0" arrivalPos="492.80" arrivalSpeed="11.04" duration="93.00" routeLength="995.70" waitingTime="9.00" waitingCount="1" stopTime="0.00" timeLoss="22.78" rerouteNo="0" devices="tripinfo_NS_137" vType="car" speedFactor="1.02" vaporized=""/>
    <tripinfo id="SN_131" depart="131.00" departLane="3i_0" departPos="4.10" departSpeed="0.00" departDelay="0.00" arrival="235.00" arrivalLane="1o_0" arrivalPos="492.80" arrivalSpeed="8.87" duration="104.00" routeLength="995.70" waitingTime="2.00" waitingCount="1" stopTime="0.00" timeLoss="20.73" rerouteNo="0" devices="tripinfo_SN_131" vType="car" speedFactor="0.85" vaporized=""/>
    <tripinfo id="NS_149" depart="149.00" departLane="2i_0" departPos="4.10" departSpeed="0.00" departDelay="0.00" arrival="236.00" arrivalLane="1o_0" arrivalPos="492.80" arrivalSpeed="10.53" duration="87.00" routeLength="995.90" waitingTime="3.00" waitingCount="1" stopTime="0.00" timeLoss="23.85" rerouteNo="0" devices="tripinfo_NS_149" vType="car" speedFactor="1.12" vaporized=""/>
    <tripinfo id="NS_162" depart="162.00" departLane="2i_0" departPos="4.10" departSpeed="0.00" departDelay="0.00" arrival="248.00" arrivalLane="1o_0" arrivalPos="492.80" arrivalSpeed="9.14" duration="86.00" routeLength="995.90" waitingTime="0.00" waitingCount="0" stopTime="0.00" timeLoss="7.98" rerouteNo="0" devices="tripinfo_NS_162" vType="car" speedFactor="0.91" vaporized=""/>
    <tripinfo id="WE_179" depart="179.00" departLane="1i_0" departPos="4.10" departSpeed="0.00" departDelay="0.00" arrival="257.00" arrivalLane="4o_0" arrivalPos="492.80" arrivalSpeed="11.66" duration="78.00" routeLength="995.70" waitingTime="0.00" waitingCount="0" stopTime="0.00" timeLoss="10.21" rerouteNo="0" devices="tripinfo_WE_179" vType="car" speedFactor="1.06" vaporized=""/>
    <tripinfo id="NS_185" depart="187.00" departLane="2i_0" departPos="4.10" departSpeed="0.00" departDelay="2.00" arrival="268.00" arrivalLane="4o_0" arrivalPos="492.80" arrivalSpeed="10.18" duration="81.00" routeLength="990.53" waitingTime="0.00" waitingCount="0" stopTime="0.00" timeLoss="8.84" rerouteNo="0" devices="tripinfo_NS_185" vType="car" speedFactor="0.98" vaporized=""/>
    <tripinfo id="WE_180" depart="182.00" departLane="1i_0" departPos="4.10" departSpeed="0.00" departDelay="2.00" arrival="272.00" arrivalLane="4o_0" arrivalPos="492.80" arrivalSpeed="9.41" duration="90.00" routeLength="995.70" waitingTime="2.00" waitingCount="1" stopTime="0.00" timeLoss="15.94" rerouteNo="0" devices="tripinfo_WE_180" vType="car" speedFactor="0.96" vaporized=""/>
    <tripinfo id="NS_206" depart="206.00" departLane="2i_0" departPos="4.10" departSpeed="0.00" departDelay="0.00" arrival="288.00" arrivalLane="1o_0" arrivalPos="492.80" arrivalSpeed="10.11" duration="82.00" routeLength="995.90" waitingTime="0.00" waitingCount="0" stopTime="0.00" timeLoss="8.37" rerouteNo="0" devices="tripinfo_NS_206" vType="car" speedFactor="0.97" vaporized=""/>
    <tripinfo id="NS_210" depart="210.00" departLane="2i_0" departPos="4.10" departSpeed="0.00" departDelay="0.00" arrival="289.00" arrivalLane="1o_0" arrivalPos="492.80" arrivalSpeed="11.89" duration="79.00" routeLength="995.90" waitingTime="0.00" waitingCount="0" stopTime="0.00" timeLoss="17.31" rerouteNo="0" devices="tripinfo_NS_210" vType="car" speedFactor="1.15" vaporized=""/>
    <tripinfo id="NS_222" depart="222.00" departLane="2i_0" departPos="4.10" departSpeed="0.00" departDelay="0.00" arrival="302.00" arrivalLane="4o_0" arrivalPos="492.80" arrivalSpeed="10.14" duration="80.00" routeLength="990.53" waitingTime="0.00" waitingCount="0" stopTime="0.00" timeLoss="9.25" rerouteNo="0" devices="tripinfo_NS_222" vType="car" speedFactor="1.01" vaporized=""/>
    <tripinfo id="NS_228" depart="228.00" departLane="2i_0" departPos="4.10" departSpeed="0.00" departDelay="0.00" arrival="315.00" arrivalLane="3o_0" arrivalPos="492.80" arrivalSpeed="10.08" duration="87.00" routeLength="995.70" waitingTime="0.00" waitingCount="0" stopTime="0.00" timeLoss="9.79" rerouteNo="0" devices="tripinfo_NS_228" vType="car" speedFactor="0.92" vaporized=""/>
    <tripinfo id="WE_238" depart="238.00" departLane="1i_0" departPos="4.10" departSpeed="0.00" departDelay="0.00" arrival="316.00" arrivalLane="3o_0" arrivalPos="492.80" arrivalSpeed="11.58" duration="78.00" routeLength="990.53" waitingTime="0.00" waitingCount="0" stopTime="0.00" timeLoss="11.40" rerouteNo="0" devices="tripinfo_WE_238" vType="car" speedFactor="1.06" vaporized=""/>
    <tripinfo id="NS_238" depart="238.00" departLane="2i_0" departPos="4.10" departSpeed="0.00" departDelay="0.00" arrival="318.00" arrivalLane="3o_0" arrivalPos="492.80" arrivalSpeed="11.22" duration="80.00" routeLength="995.70" waitingTime="0.00" waitingCount="0" stopTime="0.00" timeLoss="9.95" rerouteNo="0" devices="tripinfo_NS_238" vType="car" speedFactor="1.01" vaporized=""/>
    <tripinfo id="NS_244" depart="246.00" departLane="2i_0" departPos="4.10" departSpeed="0.00" departDelay="2.00" arrival="326.00" arrivalLane="3o_0" arrivalPos="492.80" arrivalSpeed="12.30" duration="80.00" routeLength="995.70" waitingTime="0.00" waitingCount="0" stopTime="0.00" timeLoss="16.85" rerouteNo="0" devices="tripinfo_NS_244" vType="car" speedFactor="1.12" vaporized=""/>
    <tripinfo id="NS_242" depart="242.00" departLane="2i_0" departPos="10.10" departSpeed="0.00" departDelay="0.00" arrival="327.00" arrivalLane="4o_0" arrivalPos="492.80" arrivalSpeed="10.48" duration="85.00" routeLength="984.53" waitingTime="0.00" waitingCount="0" stopTime="0.00" timeLoss="11.69" rerouteNo="0" devices="tripinfo_NS_242" vType="truck" speedFactor="0.95" vaporized=""/>
    <tripinfo id="NS_252" depart="252.00" departLane="2i_0" departPos="4.10" departSpeed="0.00" departDelay="0.00" arrival="329.00" arrivalLane="1o_0" arrivalPos="492.80" arrivalSpeed="11.03" duration="77.00" routeLength="995.90" waitingTime="0.00" waitingCount="0" stopTime="0.00" timeLoss="11.87" rerouteNo="0" devices="tripinfo_NS_252" vType="car" speedFactor="1.10" vaporized=""/>
    <tripinfo id="EW_138" depart="139.00" departLane="4i_0" departPos="4.10" departSpeed="0.00" departDelay="1.00" arrival="338.00" arrivalLane="3o_0" arrivalPos="492.80" arrivalSpeed="11.74" duration="199.00" routeLength="995.90" waitingTime="120.00" waitingCount="2" stopTime="0.00" timeLoss="134.39" rerouteNo="0" devices="tripinfo_EW_138" vType="car" speedFactor="1.10" vaporized=""/>
    <tripinfo id="SN_147" depart="149.00" departLane="3i_0" departPos="10.10" departSpeed="0.00" departDelay="2.00" arrival="343.00" arrivalLane="4o_0" arrivalPos="492.80" arrivalSpeed="11.12" duration="194.00" routeLength="989.90" waitingTime="104.00" waitingCount="1" stopTime="0.00" timeLoss="126.04" rerouteNo="0" devices="tripinfo_SN_147" vType="truck" speedFactor="1.04" vaporized=""/>
    <tripinfo id="SN_145" depart="145.00" departLane="3i_0" departPos="4.10" departSpeed="0.00" departDelay="0.00" arrival="344.00" arrivalLane="2o_0" arrivalPos="492.80" arrivalSpeed="10.33" duration="199.00" routeLength="990.53" waitingTime="112.00" waitingCount="1" stopTime="0.00" timeLoss="125.75" rerouteNo="0" devices="tripinfo_SN_145" vType="car" speedFactor="0.97" vaporized=""/>
    <tripinfo id="EW_142" depart="142.00" departLane="4i_0" departPos="4.10" departSpeed="0.00" departDelay="0.00" arrival="345.00" arrivalLane="3o_0" arrivalPos="492.80" arrivalSpeed="10.92" duration="203.00" routeLength="995.90" waitingTime="116.00" waitingCount="2" stopTime="0.00" timeLoss="131.50" rerouteNo="0" devices="tripinfo_EW_142" vType="car" speedFactor="1.00" vaporized=""/>
    <tripinfo id="SN_155" depart="155.00" departLane="3i_0" departPos="4.10" departSpeed="0.00" departDelay="0.00" arrival="351.00" arrivalLane="2o_0" arrivalPos="492.80" arrivalSpeed="9.62" duration="196.00" routeLength="990.53" waitingTime="102.00" waitingCount="1" stopTime="0.00" timeLoss="120.71" rerouteNo="0" devices="tripinfo_SN_155" vType="car" speedFactor="0.94" vaporized=""/>
    <tripinfo id="EW_143" depart="145.00" departLane="4i_0" departPos="4.10" departSpeed="0.00" departDelay="2.00" arrival="352.00" arrivalLane="3o_0" arrivalPos="492.80" arrivalSpeed="9.11" duration="207.00" routeLength="995.90" waitingTime="113.00" waitingCount="1" stopTime="0.00" timeLoss="127.96" rerouteNo="0" devices="tripinfo_EW_143" vType="car" speedFactor="0.90" vaporized=""/>
    <tripinfo id="EW_144" depart="148.00" departLane="4i_0" departPos="4.10" departSpeed="0.00" departDelay="4.00" arrival="354.00" arrivalLane="3o_0" arrivalPos="492.80" arrivalSpeed="12.15" duration="206.00" routeLength="995.90" waitingTime="112.00" waitingCount="1" stopTime="0.00" timeLoss="143.34" rerouteNo="0" devices="tripinfo_EW_144" vType="car" speedFactor="1.14" vaporized=""/>