<?xml version="1.0" encoding="UTF-8"?>

<!-- generated on 2024-05-05 22:19:57 by Eclipse SUMO sumo Version 1.19.0
<configuration xmlns:xsi="http://www.w3.org/2001/XMLSchema-instance" xsi:noNamespaceSchemaLocation="http://sumo.dlr.de/xsd/sumoConfiguration.xsd">

    <input>
        <net-file value="twoone.net.xml"/>
        <route-files value="route_gen.rou.xml"/>
    </input>

    <output>
        <tripinfo-output value="tripinfo_epi261.xml"/>
    </output>

    <report>
        <no-warnings value="true"/>
    </report>

    <traci_server>
        <remote-port value="35861"/>
    </traci_server>

</configuration>
-->

<tripinfos xmlns:xsi="http://www.w3.org/2001/XMLSchema-instance" xsi:noNamespaceSchemaLocation="http://sumo.dlr.de/xsd/tripinfo_file.xsd">
    <tripinfo id="SN_2" depart="2.00" departLane="3i_0" departPos="4.10" departSpeed="0.00" departDelay="0.00" arrival="84.00" arrivalLane="2o_0" arrivalPos="492.80" arrivalSpeed="11.17" duration="82.00" routeLength="990.53" waitingTime="1.00" waitingCount="1" stopTime="0.00" timeLoss="15.40" rerouteNo="0" devices="tripinfo_SN_2" vType="car" speedFactor="1.06" vaporized=""/>
    <tripinfo id="EW_10" depart="10.00" departLane="4i_0" departPos="4.10" departSpeed="0.00" departDelay="0.00" arrival="88.00" arrivalLane="1o_0" arrivalPos="492.80" arrivalSpeed="11.14" duration="78.00" routeLength="990.53" waitingTime="0.00" waitingCount="0" stopTime="0.00" timeLoss="12.49" rerouteNo="0" devices="tripinfo_EW_10" vType="car" speedFactor="1.08" vaporized=""/>
    <tripinfo id="NS_10" depart="10.00" departLane="2i_0" departPos="10.10" departSpeed="0.00" departDelay="0.00" arrival="92.00" arrivalLane="1o_0" arrivalPos="492.80" arrivalSpeed="10.78" duration="82.00" routeLength="989.90" waitingTime="0.00" waitingCount="0" stopTime="0.00" timeLoss="12.52" rerouteNo="0" devices="tripinfo_NS_10" vType="truck" speedFactor="1.02" vaporized=""/>
    <tripinfo id="SN_4" depart="4.00" departLane="3i_0" departPos="4.10" departSpeed="0.00" departDelay="0.00" arrival="94.00" arrivalLane="2o_0" arrivalPos="492.80" arrivalSpeed="10.31" duration="90.00" routeLength="990.53" waitingTime="1.00" waitingCount="1" stopTime="0.00" timeLoss="14.97" rerouteNo="0" devices="tripinfo_SN_4" vType="car" speedFactor="0.94" vaporized=""/>
    <tripinfo id="NS_16" depart="16.00" departLane="2i_0" departPos="4.10" departSpeed="0.00" departDelay="0.00" arrival="95.00" arrivalLane="4o_0" arrivalPos="492.80" arrivalSpeed="11.28" duration="79.00" routeLength="990.53" waitingTime="0.00" waitingCount="0" stopTime="0.00" timeLoss="10.75" rerouteNo="0" devices="tripinfo_NS_16" vType="car" speedFactor="1.05" vaporized=""/>
    <tripinfo id="SN_8" depart="8.00" departLane="3i_0" departPos="4.10" departSpeed="0.00" departDelay="0.00" arrival="99.00" arrivalLane="4o_0" arrivalPos="492.80" arrivalSpeed="9.98" duration="91.00" routeLength="995.90" waitingTime="1.00" waitingCount="1" stopTime="0.00" timeLoss="20.66" rerouteNo="0" devices="tripinfo_SN_8" vType="car" speedFactor="1.01" vaporized=""/>
    <tripinfo id="NS_18" depart="19.00" departLane="2i_0" departPos="4.10" departSpeed="0.00" departDelay="1.00" arrival="111.00" arrivalLane="3o_0" arrivalPos="492.80" arrivalSpeed="9.72" duration="92.00" routeLength="995.70" waitingTime="0.00" waitingCount="0" stopTime="0.00" timeLoss="12.14" rerouteNo="0" devices="tripinfo_NS_18" vType="car" speedFactor="0.89" vaporized=""/>
    <tripinfo id="WE_15" depart="15.00" departLane="1i_0" departPos="4.10" departSpeed="0.00" departDelay="0.00" arrival="113.00" arrivalLane="2o_0" arrivalPos="492.80" arrivalSpeed="7.95" duration="98.00" routeLength="995.90" waitingTime="0.00" waitingCount="0" stopTime="0.00" timeLoss="12.37" rerouteNo="0" devices="tripinfo_WE_15" vType="car" speedFactor="0.83" vaporized=""/>
    <tripinfo id="SN_21" depart="21.00" departLane="3i_0" departPos="4.10" departSpeed="0.00" departDelay="0.00" arrival="114.00" arrivalLane="2o_0" arrivalPos="492.80" arrivalSpeed="10.35" duration="93.00" routeLength="990.53" waitingTime="1.00" waitingCount="1" stopTime="0.00" timeLoss="18.02" rerouteNo="0" devices="tripinfo_SN_21" vType="car" speedFactor="0.94" vaporized=""/>
    <tripinfo id="NS_37" depart="37.00" departLane="2i_0" departPos="4.10" departSpeed="0.00" departDelay="0.00" arrival="114.00" arrivalLane="1o_0" arrivalPos="492.80" arrivalSpeed="11.42" duration="77.00" routeLength="995.90" waitingTime="0.00" waitingCount="0" stopTime="0.00" timeLoss="9.21" rerouteNo="0" devices="tripinfo_NS_37" vType="car" speedFactor="1.05" vaporized=""/>
    <tripinfo id="SN_22" depart="24.00" departLane="3i_0" departPos="4.10" departSpeed="0.00" departDelay="2.00" arrival="116.00" arrivalLane="2o_0" arrivalPos="492.80" arrivalSpeed="11.33" duration="92.00" routeLength="990.53" waitingTime="0.00" waitingCount="0" stopTime="0.00" timeLoss="27.16" rerouteNo="0" devices="tripinfo_SN_22" vType="car" speedFactor="1.09" vaporized=""/>
    <tripinfo id="WE_30" depart="30.00" departLane="1i_0" departPos="4.10" departSpeed="0.00" departDelay="0.00" arrival="118.00" arrivalLane="2o_0" arrivalPos="492.80" arrivalSpeed="11.33" duration="88.00" routeLength="995.90" waitingTime="0.00" waitingCount="0" stopTime="0.00" timeLoss="18.66" rerouteNo="0" devices="tripinfo_WE_30" vType="car" speedFactor="1.03" vaporized=""/>
    <tripinfo id="NS_39" depart="40.00" departLane="2i_0" departPos="4.10" departSpeed="0.00" departDelay="1.00" arrival="119.00" arrivalLane="4o_0" arrivalPos="492.80" arrivalSpeed="10.60" duration="79.00" routeLength="990.53" waitingTime="0.00" waitingCount="0" stopTime="0.00" timeLoss="7.74" rerouteNo="0" devices="tripinfo_NS_39" vType="car" speedFactor="0.99" vaporized=""/>
    <tripinfo id="NS_22" depart="22.00" departLane="2i_0" departPos="4.10" departSpeed="0.00" departDelay="0.00" arrival="124.00" arrivalLane="3o_0" arrivalPos="492.80" arrivalSpeed="8.76" duration="102.00" routeLength="995.70" waitingTime="5.00" waitingCount="1" stopTime="0.00" timeLoss="18.78" rerouteNo="0" devices="tripinfo_NS_22" vType="car" speedFactor="0.86" vaporized=""/>
    <tripinfo id="NS_42" depart="43.00" departLane="2i_0" departPos="4.10" departSpeed="0.00" departDelay="1.00" arrival="127.00" arrivalLane="1o_0" arrivalPos="492.80" arrivalSpeed="10.27" duration="84.00" routeLength="995.90" waitingTime="0.00" waitingCount="0" stopTime="0.00" timeLoss="7.71" rerouteNo="0" devices="tripinfo_NS_42" vType="car" speedFactor="0.93" vaporized=""/>
    <tripinfo id="WE_47" depart="47.00" departLane="1i_0" departPos="4.10" departSpeed="0.00" departDelay="0.00" arrival="131.00" arrivalLane="2o_0" arrivalPos="492.80" arrivalSpeed="9.75" duration="84.00" routeLength="995.90" waitingTime="0.00" waitingCount="0" stopTime="0.00" timeLoss="8.60" rerouteNo="0" devices="tripinfo_WE_47" vType="car" speedFactor="0.94" vaporized=""/>
    <tripinfo id="NS_50" depart="50.00" departLane="2i_0" departPos="4.10" departSpeed="0.00" departDelay="0.00" arrival="133.00" arrivalLane="1o_0" arrivalPos="492.80" arrivalSpeed="9.87" duration="83.00" routeLength="995.90" waitingTime="0.00" waitingCount="0" stopTime="0.00" timeLoss="7.03" rerouteNo="0" devices="tripinfo_NS_50" vType="car" speedFactor="0.94" vaporized=""/>
    <tripinfo id="NS_63" depart="63.00" departLane="2i_0" departPos="4.10" departSpeed="0.00" departDelay="0.00" arrival="141.00" arrivalLane="4o_0" arrivalPos="492.80" arrivalSpeed="10.68" duration="78.00" routeLength="990.53" waitingTime="0.00" waitingCount="0" stopTime="0.00" timeLoss="7.94" rerouteNo="0" devices="tripinfo_NS_63" vType="car" speedFactor="1.01" vaporized=""/>
    <tripinfo id="NS_69" depart="69.00" departLane="2i_0" departPos="4.10" departSpeed="0.00" departDelay="0.00" arrival="150.00" arrivalLane="4o_0" arrivalPos="492.80" arrivalSpeed="10.23" duration="81.00" routeLength="990.53" waitingTime="0.00" waitingCount="0" stopTime="0.00" timeLoss="8.39" rerouteNo="0" devices="tripinfo_NS_69" vType="car" speedFactor="0.97" vaporized=""/>
    <tripinfo id="SN_42" depart="42.00" departLane="3i_0" departPos="4.10" departSpeed="0.00" departDelay="0.00" arrival="159.00" arrivalLane="2o_0" arrivalPos="492.80" arrivalSpeed="9.66" duration="117.00" routeLength="990.53" waitingTime="22.00" waitingCount="1" stopTime="0.00" timeLoss="36.66" rerouteNo="0" devices="tripinfo_SN_42" vType="car" speedFactor="0.88" vaporized=""/>
    <tripinfo id="NS_73" depart="73.00" departLane="2i_0" departPos="4.10" departSpeed="0.00" departDelay="0.00" arrival="161.00" arrivalLane="1o_0" arrivalPos="492.80" arrivalSpeed="9.81" duration="88.00" routeLength="995.90" waitingTime="0.00" waitingCount="0" stopTime="0.00" timeLoss="7.72" rerouteNo="0" devices="tripinfo_NS_73" vType="car" speedFactor="0.89" vaporized=""/>
    <tripinfo id="WE_85" depart="85.00" departLane="1i_0" departPos="4.10" departSpeed="0.00" departDelay="0.00" arrival="161.00" arrivalLane="2o_0" arrivalPos="492.80" arrivalSpeed="12.00" duration="76.00" routeLength="995.90" waitingTime="0.00" waitingCount="0" stopTime="0.00" timeLoss="12.80" rerouteNo="0" devices="tripinfo_WE_85" vType="car" speedFactor="1.13" vaporized=""/>
    <tripinfo id="EW_39" depart="39.00" departLane="4i_0" departPos="10.10" departSpeed="0.00" departDelay="0.00" arrival="167.00" arrivalLane="1o_0" arrivalPos="492.80" arrivalSpeed="11.79" duration="128.00" routeLength="984.53" waitingTime="39.00" waitingCount="2" stopTime="0.00" timeLoss="60.73" rerouteNo="0" devices="tripinfo_EW_39" vType="truck" speedFactor="1.06" vaporized=""/>
    <tripinfo id="EW_58" depart="58.00" departLane="4i_0" departPos="4.10" departSpeed="0.00" departDelay="0.00" arrival="167.00" arrivalLane="2o_0" arrivalPos="492.80" arrivalSpeed="11.84" duration="109.00" routeLength="995.70" waitingTime="29.00" waitingCount="2" stopTime="0.00" timeLoss="47.75" rerouteNo="0" devices="tripinfo_EW_58" vType="car" speedFactor="1.16" vaporized=""/>
    <tripinfo id="WE_83" depart="83.00" departLane="1i_0" departPos="4.10" departSpeed="0.00" departDelay="0.00" arrival="167.00" arrivalLane="4o_0" arrivalPos="492.80" arrivalSpeed="9.66" duration="84.00" routeLength="995.70" waitingTime="0.00" waitingCount="0" stopTime="0.00" timeLoss="8.93" rerouteNo="0" devices="tripinfo_WE_83" vType="car" speedFactor="0.95" vaporized=""/>
    <tripinfo id="WE_92" depart="92.00" departLane="1i_0" departPos="4.10" departSpeed="0.00" departDelay="0.00" arrival="168.00" arrivalLane="4o_0" arrivalPos="492.80" arrivalSpeed="12.45" duration="76.00" routeLength="995.70" waitingTime="0.00" waitingCount="0" stopTime="0.00" timeLoss="14.77" rerouteNo="0" devices="tripinfo_WE_92" vType="car" speedFactor="1.15" vaporized=""/>
    <tripinfo id="WE_74" depart="74.00" departLane="1i_0" departPos="4.10" departSpeed="0.00" departDelay="0.00" arrival="169.00" arrivalLane="3o_0" arrivalPos="492.80" arrivalSpeed="8.02" duration="95.00" routeLength="990.53" waitingTime="0.00" waitingCount="0" stopTime="0.00" timeLoss="9.25" rerouteNo="0" devices="tripinfo_WE_74" vType="car" speedFactor="0.83" vaporized=""/>
    <tripinfo id="SN_60" depart="60.00" departLane="3i_0" departPos="4.10" departSpeed="0.00" departDelay="0.00" arrival="172.00" arrivalLane="1o_0" arrivalPos="492.80" arrivalSpeed="11.25" duration="112.00" routeLength="995.70" waitingTime="23.00" waitingCount="3" stopTime="0.00" timeLoss="42.14" rerouteNo="0" devices="tripinfo_SN_60" vType="car" speedFactor="1.02" vaporized=""/>
    <tripinfo id="EW_91" depart="91.00" departLane="4i_0" departPos="4.10" departSpeed="0.00" departDelay="0.00" arrival="180.00" arrivalLane="2o_0" arrivalPos="492.80" arrivalSpeed="12.34" duration="89.00" routeLength="995.70" waitingTime="6.00" waitingCount="2" stopTime="0.00" timeLoss="28.59" rerouteNo="0" devices="tripinfo_EW_91" vType="car" speedFactor="1.18" vaporized=""/>
    <tripinfo id="SN_74" depart="74.00" departLane="3i_0" departPos="10.10" departSpeed="0.00" departDelay="0.00" arrival="185.00" arrivalLane="4o_0" arrivalPos="492.80" arrivalSpeed="10.22" duration="111.00" routeLength="989.90" waitingTime="8.00" waitingCount="3" stopTime="0.00" timeLoss="35.59" rerouteNo="0" devices="tripinfo_SN_74" vType="truck" speedFactor="0.94" vaporized=""/>
    <tripinfo id="NS_106" depart="106.00" departLane="2i_0" departPos="4.10" departSpeed="0.00" departDelay="0.00" arrival="185.00" arrivalLane="1o_0" arrivalPos="492.80" arrivalSpeed="10.23" duration="79.00" routeLength="995.90" waitingTime="0.00" waitingCount="0" stopTime="0.00" timeLoss="9.61" rerouteNo="0" devices="tripinfo_NS_106" vType="car" speedFactor="1.02" vaporized=""/>
    <tripinfo id="WE_102" depart="102.00" departLane="1i_0" departPos="4.10" departSpeed="0.00" departDelay="0.00" arrival="187.00" arrivalLane="4o_0" arrivalPos="492.80" arrivalSpeed="12.41" duration="85.00" routeLength="995.70" waitingTime="5.00" waitingCount="1" stopTime="0.00" timeLoss="24.55" rerouteNo="0" devices="tripinfo_WE_102" vType="car" speedFactor="1.17" vaporized=""/>
    <tripinfo id="NS_113" depart="114.00" departLane="2i_0" departPos="4.10" departSpeed="0.00" departDelay="1.00" arrival="190.00" arrivalLane="1o_0" arrivalPos="492.80" arrivalSpeed="11.91" duration="76.00" routeLength="995.90" waitingTime="0.00" waitingCount="0" stopTime="0.00" timeLoss="11.33" rerouteNo="0" devices="tripinfo_NS_113" vType="car" speedFactor="1.10" vaporized=""/>
    <tripinfo id="EW_98" depart="99.00" departLane="4i_0" departPos="4.10" departSpeed="0.00" departDelay="1.00" arrival="193.00" arrivalLane="3o_0" arrivalPos="492.80" arrivalSpeed="10.57" duration="94.00" routeLength="995.90" waitingTime="4.00" waitingCount="2" stopTime="0.00" timeLoss="23.35" rerouteNo="0" devices="tripinfo_EW_98" vType="car" speedFactor="1.01" vaporized=""/>
    <tripinfo id="WE_109" depart="110.00" departLane="1i_0" departPos="4.10" departSpeed="0.00" departDelay="1.00" arrival="193.00" arrivalLane="4o_0" arrivalPos="492.80" arrivalSpeed="11.95" duration="83.00" routeLength="995.70" waitingTime="2.00" waitingCount="1" stopTime="0.00" timeLoss="22.95" rerouteNo="0" devices="tripinfo_WE_109" vType="car" speedFactor="1.18" vaporized=""/>
    <tripinfo id="SN_75" depart="78.00" departLane="3i_0" departPos="4.10" departSpeed="0.00" departDelay="3.00" arrival="194.00" arrivalLane="2o_0" arrivalPos="492.80" arrivalSpeed="9.30" duration="116.00" routeLength="990.53" waitingTime="7.00" waitingCount="3" stopTime="0.00" timeLoss="39.19" rerouteNo="0" devices="tripinfo_SN_75" vType="car" speedFactor="0.92" vaporized=""/>
    <tripinfo id="NS_117" depart="118.00" departLane="2i_0" departPos="4.10" departSpeed="0.00" departDelay="1.00" arrival="196.00" arrivalLane="1o_0" arrivalPos="492.80" arrivalSpeed="10.43" duration="78.00" routeLength="995.90" waitingTime="0.00" waitingCount="0" stopTime="0.00" timeLoss="8.72" rerouteNo="0" devices="tripinfo_NS_117" vType="car" speedFactor="1.03" vaporized=""/>
    <tripinfo id="WE_107" depart="107.00" departLane="1i_0" departPos="4.10" departSpeed="0.00" departDelay="0.00" arrival="198.00" arrivalLane="3o_0" arrivalPos="492.80" arrivalSpeed="9.55" duration="91.00" routeLength="990.53" waitingTime="2.00" waitingCount="1" stopTime="0.00" timeLoss="18.51" rerouteNo="0" devices="tripinfo_WE_107" vType="car" speedFactor="0.97" vaporized=""/>
    <tripinfo id="EW_103" depart="103.00" departLane="4i_0" departPos="4.10" departSpeed="0.00" departDelay="0.00" arrival="203.00" arrivalLane="2o_0" arrivalPos="492.80" arrivalSpeed="9.77" duration="100.00" routeLength="995.70" waitingTime="8.00" waitingCount="2" stopTime="0.00" timeLoss="28.78" rerouteNo="0" devices="tripinfo_EW_103" vType="car" speedFactor="0.99" vaporized=""/>
    <tripinfo id="WE_127" depart="127.00" departLane="1i_0" departPos="4.10" departSpeed="0.00" departDelay="0.00" arrival="205.00" arrivalLane="4o_0" arrivalPos="492.80" arrivalSpeed="11.09" duration="78.00" routeLength="995.70" waitingTime="0.00" waitingCount="0" stopTime="0.00" timeLoss="13.13" rerouteNo="0" devices="tripinfo_WE_127" vType="car" speedFactor="1.09" vaporized=""/>
    <tripinfo id="SN_89" depart="89.00" departLane="3i_0" departPos="4.10" departSpeed="0.00" departDelay="0.00" arrival="208.00" arrivalLane="1o_0" arrivalPos="492.80" arrivalSpeed="9.20" duration="119.00" routeLength="995.70" waitingTime="11.00" waitingCount="3" stopTime="0.00" timeLoss="42.89" rerouteNo="0" devices="tripinfo_SN_89" vType="car" speedFactor="0.93" vaporized=""/>
    <tripinfo id="WE_131" depart="131.00" departLane="1i_0" departPos="4.10" departSpeed="0.00" departDelay="0.00" arrival="208.00" arrivalLane="3o_0" arrivalPos="492.80" arrivalSpeed="10.58" duration="77.00" routeLength="990.53" waitingTime="0.00" waitingCount="0" stopTime="0.00" timeLoss="9.46" rerouteNo="0" devices="tripinfo_WE_131" vType="car" speedFactor="1.04" vaporized=""/>
    <tripinfo id="WE_122" depart="122.00" departLane="1i_0" departPos="4.10" departSpeed="0.00" departDelay="0.00" arrival="209.00" arrivalLane="2o_0" arrivalPos="492.80" arrivalSpeed="10.28" duration="87.00" routeLength="995.90" waitingTime="0.00" waitingCount="0" stopTime="0.00" timeLoss="13.00" rerouteNo="0" devices="tripinfo_WE_122" vType="car" speedFactor="0.96" vaporized=""/>
    <tripinfo id="SN_130" depart="130.00" departLane="3i_0" departPos="4.10" departSpeed="0.00" departDelay="0.00" arrival="221.00" arrivalLane="4o_0" arrivalPos="492.80" arrivalSpeed="10.25" duration="91.00" routeLength="995.90" waitingTime="9.00" waitingCount="1" stopTime="0.00" timeLoss="23.01" rerouteNo="0" devices="tripinfo_SN_130" vType="car" speedFactor="1.04" vaporized=""/>
    <tripinfo id="SN_140" depart="140.00" departLane="3i_0" departPos="4.10" departSpeed="0.00" departDelay="0.00" arrival="225.00" arrivalLane="4o_0" arrivalPos="492.80" arrivalSpeed="11.10" duration="85.00" routeLength="995.90" waitingTime="4.00" waitingCount="2" stopTime="0.00" timeLoss="19.73" rerouteNo="0" devices="tripinfo_SN_140" vType="car" speedFactor="1.09" vaporized=""/>
    <tripinfo id="EW_116" depart="116.00" departLane="4i_0" departPos="4.10" departSpeed="0.00" departDelay="0.00" arrival="228.00" arrivalLane="3o_0" arrivalPos="492.80" arrivalSpeed="9.96" duration="112.00" routeLength="995.90" waitingTime="17.00" waitingCount="1" stopTime="0.00" timeLoss="33.30" rerouteNo="0" devices="tripinfo_EW_116" vType="car" speedFactor="0.90" vaporized=""/>
    <tripinfo id="NS_143" depart="143.00" departLane="2i_0" departPos="4.10" departSpeed="0.00" departDelay="0.00" arrival="230.00" arrivalLane="3o_0" arrivalPos="492.80" arrivalSpeed="10.38" duration="87.00" routeLength="995.70" waitingTime="0.00" waitingCount="0" stopTime="0.00" timeLoss="15.71" rerouteNo="0" devices="tripinfo_NS_143" vType="car" speedFactor="1.00" vaporized=""/>
    <tripinfo id="WE_153" depart="153.00" departLane="1i_0" departPos="4.10" departSpeed="0.00" departDelay="0.00" arrival="232.00" arrivalLane="3o_0" arrivalPos="492.80" arrivalSpeed="11.93" duration="79.00" routeLength="990.53" waitingTime="0.00" waitingCount="0" stopTime="0.00" timeLoss="17.98" rerouteNo="0" devices="tripinfo_WE_153" vType="car" speedFactor="1.17" vaporized=""/>
    <tripinfo id="NS_147" depart="147.00" departLane="2i_0" departPos="4.10" departSpeed="0.00" departDelay="0.00" arrival="237.00" arrivalLane="4o_0" arrivalPos="492.80" arrivalSpeed="9.41" duration="90.00" routeLength="990.53" waitingTime="0.00" waitingCount="0" stopTime="0.00" timeLoss="11.49" rerouteNo="0" devices="tripinfo_NS_147" vType="car" speedFactor="0.90" vaporized=""/>
    <tripinfo id="SN_147" depart="147.00" departLane="3i_0" departPos="4.10" departSpeed="0.00" departDelay="0.00" arrival="240.00" arrivalLane="2o_0" arrivalPos="492.80" arrivalSpeed="9.54" duration="93.00" routeLength="990.53" waitingTime="0.00" waitingCount="0" stopTime="0.00" timeLoss="12.69" rerouteNo="0" devices="tripinfo_SN_147" vType="car" speedFactor="0.88" vaporized=""/>
    <tripinfo id="WE_158" depart="161.00" departLane="1i_0" departPos="4.10" departSpeed="0.00" departDelay="3.00" arrival="240.00" arrivalLane="3o_0" arrivalPos="492.80" arrivalSpeed="10.31" duration="79.00" routeLength="990.53" waitingTime="0.00" waitingCount="0" stopTime="0.00" timeLoss="8.21" rerouteNo="0" devices="tripinfo_WE_158" vType="car" speedFactor="1.00" vaporized=""/>
    <tripinfo id="WE_166" depart="167.00" departLane="1i_0" departPos="4.10" departSpeed="0.00" departDelay="1.00" arrival="242.00" arrivalLane="3o_0" arrivalPos="492.80" arrivalSpeed="11.18" duration="75.00" routeLength="990.53" waitingTime="0.00" waitingCount="0" stopTime="0.00" timeLoss="9.52" rerouteNo="0" devices="tripinfo_WE_166" vType="car" speedFactor="1.08" vaporized=""/>
    <tripinfo id="SN_151" depart="151.00" departLane="3i_0" departPos="4.10" departSpeed="0.00" departDelay="0.00" arrival="244.00" arrivalLane="2o_0" arrivalPos="492.80" arrivalSpeed="8.79" duration="93.00" routeLength="990.53" waitingTime="0.00" waitingCount="0" stopTime="0.00" timeLoss="10.42" rerouteNo="0" devices="tripinfo_SN_151" vType="car" speedFactor="0.85" vaporized=""/>
    <tripinfo id="WE_156" depart="156.00" departLane="1i_0" departPos="4.10" departSpeed="0.00" departDelay="0.00" arrival="246.00" arrivalLane="2o_0" arrivalPos="492.80" arrivalSpeed="10.31" duration="90.00" routeLength="995.90" waitingTime="0.00" waitingCount="0" stopTime="0.00" timeLoss="19.11" rerouteNo="0" devices="tripinfo_WE_156" vType="car" speedFactor="1.00" vaporized=""/>
    <tripinfo id="WE_169" depart="169.00" departLane="1i_0" departPos="4.10" departSpeed="0.00" departDelay="0.00" arrival="248.00" arrivalLane="2o_0" arrivalPos="492.80" arrivalSpeed="11.42" duration="79.00" routeLength="995.90" waitingTime="0.00" waitingCount="0" stopTime="0.00" timeLoss="14.97" rerouteNo="0" devices="tripinfo_WE_169" vType="car" speedFactor="1.12" vaporized=""/>
    <tripinfo id="WE_172" depart="172.00" departLane="1i_0" departPos="4.10" departSpeed="0.00" departDelay="0.00" arrival="257.00" arrivalLane="3o_0" arrivalPos="492.80" arrivalSpeed="9.42" duration="85.00" routeLength="990.53" waitingTime="0.00" waitingCount="0" stopTime="0.00" timeLoss="9.26" rerouteNo="0" devices="tripinfo_WE_172" vType="car" speedFactor="0.94" vaporized=""/>
    <tripinfo id="NS_155" depart="155.00" departLane="2i_0" departPos="4.10" departSpeed="0.00" departDelay="0.00" arrival="259.00" arrivalLane="3o_0" arrivalPos="492.80" arrivalSpeed="11.80" duration="104.00" routeLength="995.70" waitingTime="17.00" waitingCount="1" stopTime="0.00" timeLoss="38.69" rerouteNo="0" devices="tripinfo_NS_155" vType="car" speedFactor="1.10" vaporized=""/>
    <tripinfo id="NS_160" depart="161.00" departLane="2i_0" departPos="4.10" departSpeed="0.00" departDelay="1.00" arrival="259.00" arrivalLane="4o_0" arrivalPos="492.80" arrivalSpeed="10.52" duration="98.00" routeLength="990.53" waitingTime="11.00" waitingCount="1" stopTime="0.00" timeLoss="28.62" rerouteNo="0" devices="tripinfo_NS_160" vType="car" speedFactor="1.02" vaporized=""/>
    <tripinfo id="NS_159" depart="159.00" departLane="2i_0" departPos="4.10" departSpeed="0.00" departDelay="0.00" arrival="264.00" arrivalLane="3o_0" arrivalPos="492.80" arrivalSpeed="8.92" duration="105.00" routeLength="995.70" waitingTime="12.00" waitingCount="1" stopTime="0.00" timeLoss="25.81" rerouteNo="0" devices="tripinfo_NS_159" vType="car" speedFactor="0.90" vaporized=""/>
    <tripinfo id="NS_161" depart="164.00" departLane="2i_0" departPos="4.10" departSpeed="0.00" departDelay="3.00" arrival="264.00" arrivalLane="4o_0" arrivalPos="492.80" arrivalSpeed="10.70" duration="100.00" routeLength="990.53" waitingTime="10.00" waitingCount="1" stopTime="0.00" timeLoss="26.72" rerouteNo="0" devices="tripinfo_NS_161" vType="car" speedFactor="0.97" vaporized=""/>
    <tripinfo id="WE_180" depart="180.00" departLane="1i_0" departPos="4.10" departSpeed="0.00" departDelay="0.00" arrival="265.00" arrivalLane="4o_0" arrivalPos="492.80" arrivalSpeed="10.98" duration="85.00" routeLength="995.70" waitingTime="0.00" waitingCount="0" stopTime="0.00" timeLoss="17.09" rerouteNo="0" devices="tripinfo_WE_180" vType="car" speedFactor="1.04" vaporized=""/>
    <tripinfo id="NS_187" depart="187.00" departLane="2i_0" departPos="10.10" departSpeed="0.00" departDelay="0.00" arrival="268.00" arrivalLane="1o_0" arrivalPos="492.80" arrivalSpeed="11.09" duration="81.00" routeLength="989.90" waitingTime="0.00" waitingCount="0" stopTime="0.00" timeLoss="12.13" rerouteNo="0" devices="tripinfo_NS_187" vType="truck" speedFactor="1.03" vaporized=""/>
    <tripinfo id="NS_203" depart="203.00" departLane="2i_0" departPos="4.10" departSpeed="0.00" departDelay="0.00" arrival="281.00" arrivalLane="1o_0" arrivalPos="492.80" arrivalSpeed="11.21" duration="78.00" routeLength="995.90" waitingTime="0.00" waitingCount="0" stopTime="0.00" timeLoss="12.38" rerouteNo="0" devices="tripinfo_NS_203" vType="car" speedFactor="1.09" vaporized=""/>
    <tripinfo id="NS_195" depart="195.00" departLane="2i_0" departPos="10.10" departSpeed="0.00" departDelay="0.00" arrival="282.00" arrivalLane="3o_0" arrivalPos="492.80" arrivalSpeed="10.62" duration="87.00" routeLength="989.70" waitingTime="0.00" waitingCount="0" stopTime="0.00" timeLoss="15.47" rerouteNo="0" devices="tripinfo_NS_195" vType="truck" speedFactor="0.99" vaporized=""/>
    <tripinfo id="NS_204" depart="205.00" departLane="2i_0" departPos="4.10" departSpeed="0.00" departDelay="1.00" arrival="285.00" arrivalLane="3o_0" arrivalPos="492.80" arrivalSpeed="10.96" duration="80.00" routeLength="995.70" waitingTime="0.00" waitingCount="0" stopTime="0.00" timeLoss="11.21" rerouteNo="0" devices="tripinfo_NS_204" vType="car" speedFactor="1.03" vaporized=""/>
    <tripinfo id="NS_209" depart="209.00" departLane="2i_0" departPos="4.10" departSpeed="0.00" departDelay="0.00" arrival="289.00" arrivalLane="3o_0" arrivalPos="492.80" arrivalSpeed="10.22" duration="80.00" routeLength="995.70" waitingTime="0.00" waitingCount="0" stopTime="0.00" timeLoss="10.40" rerouteNo="0" devices="tripinfo_NS_209" vType="car" speedFactor="1.02" vaporized=""/>
    <tripinfo id="WE_194" depart="196.00" departLane="1i_0" departPos="4.10" departSpeed="0.00" departDelay="2.00" arrival="295.00" arrivalLane="4o_0" arrivalPos="492.80" arrivalSpeed="10.57" duration="99.00" routeLength="995.70" waitingTime="11.00" waitingCount="1" stopTime="0.00" timeLoss="25.13" rerouteNo="0" devices="tripinfo_WE_194" vType="car" speedFactor="0.96" vaporized=""/>
    <tripinfo id="WE_199" depart="199.00" departLane="1i_0" departPos="4.10" departSpeed="0.00" departDelay="0.00" arrival="295.00" arrivalLane="2o_0" arrivalPos="492.80" arrivalSpeed="10.92" duration="96.00" routeLength="995.90" waitingTime="10.00" waitingCount="1" stopTime="0.00" timeLoss="25.28" rerouteNo="0" devices="tripinfo_WE_199" vType="car" speedFactor="1.01" vaporized=""/>
    <tripinfo id="WE_209" depart="209.00" departLane="1i_0" departPos="4.10" departSpeed="0.00" departDelay="0.00" arrival="296.00" arrivalLane="3o_0" arrivalPos="492.80" arrivalSpeed="10.29" duration="87.00" routeLength="990.53" waitingTime="2.00" waitingCount="1" stopTime="0.00" timeLoss="16.57" rerouteNo="0" devices="tripinfo_WE_209" vType="car" speedFactor="1.00" vaporized=""/>
    <tripinfo id="WE_215" depart="215.00" departLane="1i_0" departPos="4.10" departSpeed="0.00" departDelay="0.00" arrival="301.00" arrivalLane="4o_0" arrivalPos="492.80" arrivalSpeed="9.77" duration="86.00" routeLength="995.70" waitingTime="0.00" waitingCount="0" stopTime="0.00" timeLoss="13.08" rerouteNo="0" devices="tripinfo_WE_215" vType="car" speedFactor="0.98" vaporized=""/>
    <tripinfo id="WE_235" depart="235.00" departLane="1i_0" departPos="4.10" departSpeed="0.00" departDelay="0.00" arrival="313.00" arrivalLane="3o_0" arrivalPos="492.80" arrivalSpeed="10.66" duration="78.00" routeLength="990.53" waitingTime="0.00" waitingCount="0" stopTime="0.00" timeLoss="8.91" rerouteNo="0" devices="tripinfo_WE_235" vType="car" speedFactor="1.02" vaporized=""/>
    <tripinfo id="WE_245" depart="246.00" departLane="1i_0" departPos="4.10" departSpeed="0.00" departDelay="1.00" arrival="323.00" arrivalLane="4o_0" arrivalPos="492.80" arrivalSpeed="10.96" duration="77.00" routeLength="995.70" waitingTime="0.00" waitingCount="0" stopTime="0.00" timeLoss="11.90" rerouteNo="0" devices="tripinfo_WE_245" vType="car" speedFactor="1.09" vaporized=""/>
    <tripinfo id="WE_243" depart="243.00" departLane="1i_0" departPos="4.10" departSpeed="0.00" departDelay="0.00" arrival="328.00" arrivalLane="3o_0" arrivalPos="492.80" arrivalSpeed="9.72" duration="85.00" routeLength="990.53" waitingTime="0.00" waitingCount="0" stopTime="0.00" timeLoss="8.39" rerouteNo="0" devices="tripinfo_WE_243" vType="car" speedFactor="0.92" vaporized=""/>
    <tripinfo id="NS_254" depart="254.00" departLane="2i_0" departPos="10.10" departSpeed="0.00" departDelay="0.00" arrival="337.00" arrivalLane="1o_0" arrivalPos="492.80" arrivalSpeed="10.58" duration="83.00" routeLength="989.90" waitingTime="0.00" waitingCount="0" stopTime="0.00" timeLoss="12.91" rerouteNo="0" devices="tripinfo_NS_254" vType="truck" speedFactor="1.00" vaporized=""/>
    <tripinfo id="NS_255" depart="258.00" departLane="2i_0" departPos="4.10" departSpeed="0.00" departDelay="3.00" arrival="339.00" arrivalLane="1o_0" arrivalPos="492.80" arrivalSpeed="12.31" duration="81.00" routeLength="995.90" waitingTime="0.00" waitingCount="0" stopTime="0.00" timeLoss="17.95" rerouteNo="0" devices="tripinfo_NS_255" vType="car" speedFactor="1.12" vaporized=""/>
    <tripinfo id="WE_259" depart="259.00" departLane="1i_0" departPos="4.10" departSpeed="0.00" departDelay="0.00" arrival="343.00" arrivalLane="2o_0" arrivalPos="492.80" arrivalSpeed="12.18" duration="84.00" routeLength="995.90" waitingTime="2.00" waitingCount="1" stopTime="0.00" timeLoss="18.76" rerouteNo="0" devices="tripinfo_WE_259" vType="car" speedFactor="1.10" vaporized=""/>