<?xml version="1.0" encoding="UTF-8"?>

<!-- generated on 2024-05-05 21:30:00 by Eclipse SUMO sumo Version 1.19.0
<configuration xmlns:xsi="http://www.w3.org/2001/XMLSchema-instance" xsi:noNamespaceSchemaLocation="http://sumo.dlr.de/xsd/sumoConfiguration.xsd">

    <input>
        <net-file value="twoone.net.xml"/>
        <route-files value="route_gen.rou.xml"/>
    </input>

    <output>
        <tripinfo-output value="tripinfo_epi35.xml"/>
    </output>

    <report>
        <no-warnings value="true"/>
    </report>

    <traci_server>
        <remote-port value="52903"/>
    </traci_server>

</configuration>
-->

<tripinfos xmlns:xsi="http://www.w3.org/2001/XMLSchema-instance" xsi:noNamespaceSchemaLocation="http://sumo.dlr.de/xsd/tripinfo_file.xsd">
    <tripinfo id="WE_1" depart="1.00" departLane="1i_0" departPos="4.10" departSpeed="0.00" departDelay="0.00" arrival="77.00" arrivalLane="4o_0" arrivalPos="492.80" arrivalSpeed="11.08" duration="76.00" routeLength="995.70" waitingTime="0.00" waitingCount="0" stopTime="0.00" timeLoss="9.17" rerouteNo="0" devices="tripinfo_WE_1" vType="car" speedFactor="1.06" vaporized=""/>
    <tripinfo id="WE_13" depart="13.00" departLane="1i_0" departPos="4.10" departSpeed="0.00" departDelay="0.00" arrival="87.00" arrivalLane="2o_0" arrivalPos="492.80" arrivalSpeed="11.10" duration="74.00" routeLength="995.90" waitingTime="0.00" waitingCount="0" stopTime="0.00" timeLoss="8.50" rerouteNo="0" devices="tripinfo_WE_13" vType="car" speedFactor="1.08" vaporized=""/>
    <tripinfo id="SN_3" depart="3.00" departLane="3i_0" departPos="4.10" departSpeed="0.00" departDelay="0.00" arrival="93.00" arrivalLane="1o_0" arrivalPos="492.80" arrivalSpeed="9.90" duration="90.00" routeLength="995.70" waitingTime="2.00" waitingCount="1" stopTime="0.00" timeLoss="14.02" rerouteNo="0" devices="tripinfo_SN_3" vType="car" speedFactor="0.94" vaporized=""/>
    <tripinfo id="SN_11" depart="11.00" departLane="3i_0" departPos="4.10" departSpeed="0.00" departDelay="0.00" arrival="96.00" arrivalLane="1o_0" arrivalPos="492.80" arrivalSpeed="11.11" duration="85.00" routeLength="995.70" waitingTime="1.00" waitingCount="1" stopTime="0.00" timeLoss="14.98" rerouteNo="0" devices="tripinfo_SN_11" vType="car" speedFactor="1.01" vaporized=""/>
    <tripinfo id="NS_20" depart="20.00" departLane="2i_0" departPos="4.10" departSpeed="0.00" departDelay="0.00" arrival="98.00" arrivalLane="1o_0" arrivalPos="492.80" arrivalSpeed="11.51" duration="78.00" routeLength="995.90" waitingTime="0.00" waitingCount="0" stopTime="0.00" timeLoss="10.02" rerouteNo="0" devices="tripinfo_NS_20" vType="car" speedFactor="1.05" vaporized=""/>
    <tripinfo id="SN_15" depart="15.00" departLane="3i_0" departPos="4.10" departSpeed="0.00" departDelay="0.00" arrival="100.00" arrivalLane="4o_0" arrivalPos="492.80" arrivalSpeed="11.32" duration="85.00" routeLength="995.90" waitingTime="1.00" waitingCount="1" stopTime="0.00" timeLoss="15.80" rerouteNo="0" devices="tripinfo_SN_15" vType="car" speedFactor="1.03" vaporized=""/>
    <tripinfo id="WE_25" depart="25.00" departLane="1i_0" departPos="4.10" departSpeed="0.00" departDelay="0.00" arrival="117.00" arrivalLane="4o_0" arrivalPos="492.80" arrivalSpeed="9.43" duration="92.00" routeLength="995.70" waitingTime="0.00" waitingCount="0" stopTime="0.00" timeLoss="9.55" rerouteNo="0" devices="tripinfo_WE_25" vType="car" speedFactor="0.86" vaporized=""/>
    <tripinfo id="WE_29" depart="29.00" departLane="1i_0" departPos="4.10" departSpeed="0.00" departDelay="0.00" arrival="119.00" arrivalLane="4o_0" arrivalPos="492.80" arrivalSpeed="11.25" duration="90.00" routeLength="995.70" waitingTime="0.00" waitingCount="0" stopTime="0.00" timeLoss="22.13" rerouteNo="0" devices="tripinfo_WE_29" vType="car" speedFactor="1.05" vaporized=""/>
    <tripinfo id="WE_37" depart="37.00" departLane="1i_0" departPos="4.10" departSpeed="0.00" departDelay="0.00" arrival="121.00" arrivalLane="4o_0" arrivalPos="492.80" arrivalSpeed="12.42" duration="84.00" routeLength="995.70" waitingTime="0.00" waitingCount="0" stopTime="0.00" timeLoss="20.46" rerouteNo="0" devices="tripinfo_WE_37" vType="car" speedFactor="1.12" vaporized=""/>
    <tripinfo id="NS_40" depart="40.00" departLane="2i_0" departPos="4.10" departSpeed="0.00" departDelay="0.00" arrival="123.00" arrivalLane="4o_0" arrivalPos="492.80" arrivalSpeed="10.22" duration="83.00" routeLength="990.53" waitingTime="0.00" waitingCount="0" stopTime="0.00" timeLoss="11.69" rerouteNo="0" devices="tripinfo_NS_40" vType="car" speedFactor="0.99" vaporized=""/>
    <tripinfo id="EW_20" depart="20.00" departLane="4i_0" departPos="4.10" departSpeed="0.00" departDelay="0.00" arrival="124.00" arrivalLane="3o_0" arrivalPos="492.80" arrivalSpeed="8.27" duration="104.00" routeLength="995.90" waitingTime="6.00" waitingCount="1" stopTime="0.00" timeLoss="18.81" rerouteNo="0" devices="tripinfo_EW_20" vType="car" speedFactor="0.83" vaporized=""/>
    <tripinfo id="SN_22" depart="22.00" departLane="3i_0" departPos="4.10" departSpeed="0.00" departDelay="0.00" arrival="124.00" arrivalLane="1o_0" arrivalPos="492.80" arrivalSpeed="9.18" duration="102.00" routeLength="995.70" waitingTime="7.00" waitingCount="2" stopTime="0.00" timeLoss="21.93" rerouteNo="0" devices="tripinfo_SN_22" vType="car" speedFactor="0.89" vaporized=""/>
    <tripinfo id="EW_25" depart="25.00" departLane="4i_0" departPos="4.10" departSpeed="0.00" departDelay="0.00" arrival="126.00" arrivalLane="3o_0" arrivalPos="492.80" arrivalSpeed="11.52" duration="101.00" routeLength="995.90" waitingTime="9.00" waitingCount="2" stopTime="0.00" timeLoss="35.59" rerouteNo="0" devices="tripinfo_EW_25" vType="car" speedFactor="1.09" vaporized=""/>
    <tripinfo id="SN_24" depart="25.00" departLane="3i_0" departPos="4.10" departSpeed="0.00" departDelay="1.00" arrival="127.00" arrivalLane="4o_0" arrivalPos="492.80" arrivalSpeed="9.82" duration="102.00" routeLength="995.90" waitingTime="9.00" waitingCount="3" stopTime="0.00" timeLoss="26.75" rerouteNo="0" devices="tripinfo_SN_24" vType="car" speedFactor="0.94" vaporized=""/>
    <tripinfo id="NS_49" depart="49.00" departLane="2i_0" departPos="4.10" departSpeed="0.00" departDelay="0.00" arrival="133.00" arrivalLane="1o_0" arrivalPos="492.80" arrivalSpeed="9.53" duration="84.00" routeLength="995.90" waitingTime="0.00" waitingCount="0" stopTime="0.00" timeLoss="8.47" rerouteNo="0" devices="tripinfo_NS_49" vType="car" speedFactor="0.94" vaporized=""/>
    <tripinfo id="NS_50" depart="52.00" departLane="2i_0" departPos="4.10" departSpeed="0.00" departDelay="2.00" arrival="137.00" arrivalLane="3o_0" arrivalPos="492.80" arrivalSpeed="9.58" duration="85.00" routeLength="995.70" waitingTime="0.00" waitingCount="0" stopTime="0.00" timeLoss="9.42" rerouteNo="0" devices="tripinfo_NS_50" vType="car" speedFactor="0.94" vaporized=""/>
    <tripinfo id="NS_59" depart="59.00" departLane="2i_0" departPos="4.10" departSpeed="0.00" departDelay="0.00" arrival="137.00" arrivalLane="4o_0" arrivalPos="492.80" arrivalSpeed="10.07" duration="78.00" routeLength="990.53" waitingTime="0.00" waitingCount="0" stopTime="0.00" timeLoss="8.79" rerouteNo="0" devices="tripinfo_NS_59" vType="car" speedFactor="1.02" vaporized=""/>
    <tripinfo id="WE_60" depart="60.00" departLane="1i_0" departPos="4.10" departSpeed="0.00" departDelay="0.00" arrival="138.00" arrivalLane="2o_0" arrivalPos="492.80" arrivalSpeed="11.05" duration="78.00" routeLength="995.90" waitingTime="0.00" waitingCount="0" stopTime="0.00" timeLoss="7.65" rerouteNo="0" devices="tripinfo_WE_60" vType="car" speedFactor="1.01" vaporized=""/>
    <tripinfo id="NS_51" depart="54.00" departLane="2i_0" departPos="4.10" departSpeed="0.00" departDelay="3.00" arrival="139.00" arrivalLane="3o_0" arrivalPos="492.80" arrivalSpeed="12.27" duration="85.00" routeLength="995.70" waitingTime="1.00" waitingCount="1" stopTime="0.00" timeLoss="23.45" rerouteNo="0" devices="tripinfo_NS_51" vType="car" speedFactor="1.16" vaporized=""/>
    <tripinfo id="NS_75" depart="75.00" departLane="2i_0" departPos="4.10" departSpeed="0.00" departDelay="0.00" arrival="146.00" arrivalLane="4o_0" arrivalPos="492.80" arrivalSpeed="11.41" duration="71.00" routeLength="990.53" waitingTime="0.00" waitingCount="0" stopTime="0.00" timeLoss="8.32" rerouteNo="0" devices="tripinfo_NS_75" vType="car" speedFactor="1.13" vaporized=""/>
    <tripinfo id="WE_67" depart="67.00" departLane="1i_0" departPos="4.10" departSpeed="0.00" departDelay="0.00" arrival="148.00" arrivalLane="2o_0" arrivalPos="492.80" arrivalSpeed="10.29" duration="81.00" routeLength="995.90" waitingTime="0.00" waitingCount="0" stopTime="0.00" timeLoss="8.09" rerouteNo="0" devices="tripinfo_WE_67" vType="car" speedFactor="0.97" vaporized=""/>
    <tripinfo id="NS_67" depart="67.00" departLane="2i_0" departPos="4.10" departSpeed="0.00" departDelay="0.00" arrival="156.00" arrivalLane="3o_0" arrivalPos="492.80" arrivalSpeed="9.56" duration="89.00" routeLength="995.70" waitingTime="0.00" waitingCount="0" stopTime="0.00" timeLoss="8.97" rerouteNo="0" devices="tripinfo_NS_67" vType="car" speedFactor="0.89" vaporized=""/>
    <tripinfo id="NS_76" depart="78.00" departLane="2i_0" departPos="4.10" departSpeed="0.00" departDelay="2.00" arrival="162.00" arrivalLane="4o_0" arrivalPos="492.80" arrivalSpeed="9.39" duration="84.00" routeLength="990.53" waitingTime="0.00" waitingCount="0" stopTime="0.00" timeLoss="7.98" rerouteNo="0" devices="tripinfo_NS_76" vType="car" speedFactor="0.93" vaporized=""/>
    <tripinfo id="NS_83" depart="83.00" departLane="2i_0" departPos="4.10" departSpeed="0.00" departDelay="0.00" arrival="164.00" arrivalLane="4o_0" arrivalPos="492.80" arrivalSpeed="10.82" duration="81.00" routeLength="990.53" waitingTime="0.00" waitingCount="0" stopTime="0.00" timeLoss="10.47" rerouteNo="0" devices="tripinfo_NS_83" vType="car" speedFactor="1.01" vaporized=""/>
    <tripinfo id="WE_88" depart="88.00" departLane="1i_0" departPos="4.10" departSpeed="0.00" departDelay="0.00" arrival="169.00" arrivalLane="4o_0" arrivalPos="492.80" arrivalSpeed="9.79" duration="81.00" routeLength="995.70" waitingTime="0.00" waitingCount="0" stopTime="0.00" timeLoss="9.90" rerouteNo="0" devices="tripinfo_WE_88" vType="car" speedFactor="0.99" vaporized=""/>
    <tripinfo id="WE_104" depart="104.00" departLane="1i_0" departPos="4.10" departSpeed="0.00" departDelay="0.00" arrival="191.00" arrivalLane="2o_0" arrivalPos="492.80" arrivalSpeed="9.39" duration="87.00" routeLength="995.90" waitingTime="0.00" waitingCount="0" stopTime="0.00" timeLoss="8.28" rerouteNo="0" devices="tripinfo_WE_104" vType="car" speedFactor="0.90" vaporized=""/>
    <tripinfo id="NS_111" depart="111.00" departLane="2i_0" departPos="4.10" departSpeed="0.00" departDelay="0.00" arrival="193.00" arrivalLane="4o_0" arrivalPos="492.80" arrivalSpeed="10.06" duration="82.00" routeLength="990.53" waitingTime="0.00" waitingCount="0" stopTime="0.00" timeLoss="8.32" rerouteNo="0" devices="tripinfo_NS_111" vType="car" speedFactor="0.96" vaporized=""/>
    <tripinfo id="WE_122" depart="122.00" departLane="1i_0" departPos="4.10" departSpeed="0.00" departDelay="0.00" arrival="198.00" arrivalLane="3o_0" arrivalPos="492.80" arrivalSpeed="10.29" duration="76.00" routeLength="990.53" waitingTime="0.00" waitingCount="0" stopTime="0.00" timeLoss="7.63" rerouteNo="0" devices="tripinfo_WE_122" vType="car" speedFactor="1.04" vaporized=""/>
    <tripinfo id="WE_125" depart="125.00" departLane="1i_0" departPos="4.10" departSpeed="0.00" departDelay="0.00" arrival="199.00" arrivalLane="3o_0" arrivalPos="492.80" arrivalSpeed="11.68" duration="74.00" routeLength="990.53" waitingTime="0.00" waitingCount="0" stopTime="0.00" timeLoss="9.09" rerouteNo="0" devices="tripinfo_WE_125" vType="car" speedFactor="1.09" vaporized=""/>
    <tripinfo id="WE_127" depart="127.00" departLane="1i_0" departPos="4.10" departSpeed="0.00" departDelay="0.00" arrival="207.00" arrivalLane="3o_0" arrivalPos="492.80" arrivalSpeed="11.02" duration="80.00" routeLength="990.53" waitingTime="0.00" waitingCount="0" stopTime="0.00" timeLoss="9.41" rerouteNo="0" devices="tripinfo_WE_127" vType="car" speedFactor="1.00" vaporized=""/>
    <tripinfo id="WE_129" depart="130.00" departLane="1i_0" departPos="4.10" departSpeed="0.00" departDelay="1.00" arrival="218.00" arrivalLane="2o_0" arrivalPos="492.80" arrivalSpeed="9.88" duration="88.00" routeLength="995.90" waitingTime="0.00" waitingCount="0" stopTime="0.00" timeLoss="9.19" rerouteNo="0" devices="tripinfo_WE_129" vType="car" speedFactor="0.90" vaporized=""/>
    <tripinfo id="NS_131" depart="131.00" departLane="2i_0" departPos="10.10" departSpeed="0.00" departDelay="0.00" arrival="218.00" arrivalLane="4o_0" arrivalPos="492.80" arrivalSpeed="10.11" duration="87.00" routeLength="984.53" waitingTime="0.00" waitingCount="0" stopTime="0.00" timeLoss="11.10" rerouteNo="0" devices="tripinfo_NS_131" vType="truck" speedFactor="0.93" vaporized=""/>
    <tripinfo id="WE_148" depart="148.00" departLane="1i_0" departPos="4.10" departSpeed="0.00" departDelay="0.00" arrival="220.00" arrivalLane="2o_0" arrivalPos="492.80" arrivalSpeed="11.69" duration="72.00" routeLength="995.90" waitingTime="0.00" waitingCount="0" stopTime="0.00" timeLoss="9.52" rerouteNo="0" devices="tripinfo_WE_148" vType="car" speedFactor="1.14" vaporized=""/>
    <tripinfo id="WE_132" depart="133.00" departLane="1i_0" departPos="4.10" departSpeed="0.00" departDelay="1.00" arrival="226.00" arrivalLane="3o_0" arrivalPos="492.80" arrivalSpeed="9.49" duration="93.00" routeLength="990.53" waitingTime="0.00" waitingCount="0" stopTime="0.00" timeLoss="10.01" rerouteNo="0" devices="tripinfo_WE_132" vType="car" speedFactor="0.85" vaporized=""/>
    <tripinfo id="WE_133" depart="137.00" departLane="1i_0" departPos="10.10" departSpeed="0.00" departDelay="4.00" arrival="228.00" arrivalLane="3o_0" arrivalPos="492.80" arrivalSpeed="10.69" duration="91.00" routeLength="984.53" waitingTime="0.00" waitingCount="0" stopTime="0.00" timeLoss="21.05" rerouteNo="0" devices="tripinfo_WE_133" vType="truck" speedFactor="1.01" vaporized=""/>
    <tripinfo id="WE_152" depart="152.00" departLane="1i_0" departPos="4.10" departSpeed="0.00" departDelay="0.00" arrival="230.00" arrivalLane="3o_0" arrivalPos="492.80" arrivalSpeed="10.72" duration="78.00" routeLength="990.53" waitingTime="0.00" waitingCount="0" stopTime="0.00" timeLoss="9.22" rerouteNo="0" devices="tripinfo_WE_152" vType="car" speedFactor="1.02" vaporized=""/>
    <tripinfo id="WE_172" depart="172.00" departLane="1i_0" departPos="4.10" departSpeed="0.00" departDelay="0.00" arrival="249.00" arrivalLane="3o_0" arrivalPos="492.80" arrivalSpeed="11.23" duration="77.00" routeLength="990.53" waitingTime="0.00" waitingCount="0" stopTime="0.00" timeLoss="7.66" rerouteNo="0" devices="tripinfo_WE_172" vType="car" speedFactor="1.02" vaporized=""/>
    <tripinfo id="NS_141" depart="141.00" departLane="2i_0" departPos="4.10" departSpeed="0.00" departDelay="0.00" arrival="253.00" arrivalLane="3o_0" arrivalPos="492.80" arrivalSpeed="9.87" duration="112.00" routeLength="995.70" waitingTime="28.00" waitingCount="1" stopTime="0.00" timeLoss="41.34" rerouteNo="0" devices="tripinfo_NS_141" vType="car" speedFactor="1.00" vaporized=""/>
    <tripinfo id="NS_161" depart="161.00" departLane="2i_0" departPos="10.10" departSpeed="0.00" departDelay="0.00" arrival="257.00" arrivalLane="3o_0" arrivalPos="492.80" arrivalSpeed="10.78" duration="96.00" routeLength="989.70" waitingTime="2.00" waitingCount="1" stopTime="0.00" timeLoss="24.43" rerouteNo="0" devices="tripinfo_NS_161" vType="truck" speedFactor="0.98" vaporized=""/>
    <tripinfo id="NS_177" depart="177.00" departLane="2i_0" departPos="4.10" departSpeed="0.00" departDelay="0.00" arrival="260.00" arrivalLane="4o_0" arrivalPos="492.80" arrivalSpeed="10.23" duration="83.00" routeLength="990.53" waitingTime="0.00" waitingCount="0" stopTime="0.00" timeLoss="11.34" rerouteNo="0" devices="tripinfo_NS_177" vType="car" speedFactor="0.99" vaporized=""/>
    <tripinfo id="WE_185" depart="185.00" departLane="1i_0" departPos="4.10" departSpeed="0.00" departDelay="0.00" arrival="274.00" arrivalLane="3o_0" arrivalPos="492.80" arrivalSpeed="8.79" duration="89.00" routeLength="990.53" waitingTime="0.00" waitingCount="0" stopTime="0.00" timeLoss="9.33" rerouteNo="0" devices="tripinfo_WE_185" vType="car" speedFactor="0.88" vaporized=""/>
    <tripinfo id="WE_199" depart="199.00" departLane="1i_0" departPos="4.10" departSpeed="0.00" departDelay="0.00" arrival="276.00" arrivalLane="3o_0" arrivalPos="492.80" arrivalSpeed="11.33" duration="77.00" routeLength="990.53" waitingTime="0.00" waitingCount="0" stopTime="0.00" timeLoss="7.73" rerouteNo="0" devices="tripinfo_WE_199" vType="car" speedFactor="1.02" vaporized=""/>
    <tripinfo id="WE_191" depart="191.00" departLane="1i_0" departPos="4.10" departSpeed="0.00" departDelay="0.00" arrival="279.00" arrivalLane="4o_0" arrivalPos="492.80" arrivalSpeed="9.62" duration="88.00" routeLength="995.70" waitingTime="0.00" waitingCount="0" stopTime="0.00" timeLoss="10.23" rerouteNo="0" devices="tripinfo_WE_191" vType="car" speedFactor="0.91" vaporized=""/>
    <tripinfo id="WE_208" depart="208.00" departLane="1i_0" departPos="4.10" departSpeed="0.00" departDelay="0.00" arrival="285.00" arrivalLane="3o_0" arrivalPos="492.80" arrivalSpeed="11.27" duration="77.00" routeLength="990.53" waitingTime="0.00" waitingCount="0" stopTime="0.00" timeLoss="7.80" rerouteNo="0" devices="tripinfo_WE_208" vType="car" speedFactor="1.02" vaporized=""/>
    <tripinfo id="WE_214" depart="214.00" departLane="1i_0" departPos="4.10" departSpeed="0.00" departDelay="0.00" arrival="292.00" arrivalLane="4o_0" arrivalPos="492.80" arrivalSpeed="11.53" duration="78.00" routeLength="995.70" waitingTime="0.00" waitingCount="0" stopTime="0.00" timeLoss="10.88" rerouteNo="0" devices="tripinfo_WE_214" vType="car" speedFactor="1.06" vaporized=""/>
    <tripinfo id="WE_227" depart="227.00" departLane="1i_0" departPos="4.10" departSpeed="0.00" departDelay="0.00" arrival="300.00" arrivalLane="3o_0" arrivalPos="492.80" arrivalSpeed="11.33" duration="73.00" routeLength="990.53" waitingTime="0.00" waitingCount="0" stopTime="0.00" timeLoss="7.70" rerouteNo="0" devices="tripinfo_WE_227" vType="car" speedFactor="1.09" vaporized=""/>
    <tripinfo id="WE_220" depart="220.00" departLane="1i_0" departPos="4.10" departSpeed="0.00" departDelay="0.00" arrival="301.00" arrivalLane="2o_0" arrivalPos="492.80" arrivalSpeed="9.88" duration="81.00" routeLength="995.90" waitingTime="0.00" waitingCount="0" stopTime="0.00" timeLoss="8.43" rerouteNo="0" devices="tripinfo_WE_220" vType="car" speedFactor="0.98" vaporized=""/>
    <tripinfo id="NS_222" depart="222.00" departLane="2i_0" departPos="4.10" departSpeed="0.00" departDelay="0.00" arrival="306.00" arrivalLane="3o_0" arrivalPos="492.80" arrivalSpeed="11.29" duration="84.00" routeLength="995.70" waitingTime="2.00" waitingCount="1" stopTime="0.00" timeLoss="15.49" rerouteNo="0" devices="tripinfo_NS_222" vType="car" speedFactor="1.03" vaporized=""/>
    <tripinfo id="NS_224" depart="225.00" departLane="2i_0" departPos="4.10" departSpeed="0.00" departDelay="1.00" arrival="310.00" arrivalLane="4o_0" arrivalPos="492.80" arrivalSpeed="10.59" duration="85.00" routeLength="990.53" waitingTime="0.00" waitingCount="0" stopTime="0.00" timeLoss="12.82" rerouteNo="0" devices="tripinfo_NS_224" vType="car" speedFactor="0.98" vaporized=""/>
    <tripinfo id="NS_226" depart="227.00" departLane="2i_0" departPos="4.10" departSpeed="0.00" departDelay="1.00" arrival="311.00" arrivalLane="3o_0" arrivalPos="492.80" arrivalSpeed="10.42" duration="84.00" routeLength="995.70" waitingTime="1.00" waitingCount="1" stopTime="0.00" timeLoss="13.66" rerouteNo="0" devices="tripinfo_NS_226" vType="car" speedFactor="1.01" vaporized=""/>
    <tripinfo id="NS_231" depart="231.00" departLane="2i_0" departPos="4.10" departSpeed="0.00" departDelay="0.00" arrival="313.00" arrivalLane="3o_0" arrivalPos="492.80" arrivalSpeed="11.38" duration="82.00" routeLength="995.70" waitingTime="0.00" waitingCount="0" stopTime="0.00" timeLoss="13.28" rerouteNo="0" devices="tripinfo_NS_231" vType="car" speedFactor="1.03" vaporized=""/>
    <tripinfo id="WE_247" depart="247.00" departLane="1i_0" departPos="4.10" departSpeed="0.00" departDelay="0.00" arrival="327.00" arrivalLane="2o_0" arrivalPos="492.80" arrivalSpeed="10.19" duration="80.00" routeLength="995.90" waitingTime="0.00" waitingCount="0" stopTime="0.00" timeLoss="7.47" rerouteNo="0" devices="tripinfo_WE_247" vType="car" speedFactor="0.98" vaporized=""/>
    <tripinfo id="WE_248" depart="250.00" departLane="1i_0" departPos="10.10" departSpeed="0.00" departDelay="2.00" arrival="333.00" arrivalLane="2o_0" arrivalPos="492.80" arrivalSpeed="10.85" duration="83.00" routeLength="989.90" waitingTime="0.00" waitingCount="0" stopTime="0.00" timeLoss="11.89" rerouteNo="0" devices="tripinfo_WE_248" vType="truck" speedFactor="1.00" vaporized=""/>
    <tripinfo id="WE_252" depart="254.00" departLane="1i_0" departPos="4.10" departSpeed="0.00" departDelay="2.00" arrival="334.00" arrivalLane="3o_0" arrivalPos="492.80" arrivalSpeed="11.02" duration="80.00" routeLength="990.53" waitingTime="0.00" waitingCount="0" stopTime="0.00" timeLoss="11.67" rerouteNo="0" devices="tripinfo_WE_252" vType="car" speedFactor="1.04" vaporized=""/>
    <tripinfo id="WE_273" depart="273.00" departLane="1i_0" departPos="4.10" departSpeed="0.00" departDelay="0.00" arrival="349.00" arrivalLane="3o_0" arrivalPos="492.80" arrivalSpeed="10.70" duration="76.00" routeLength="990.53" waitingTime="0.00" waitingCount="0" stopTime="0.00" timeLoss="8.64" rerouteNo="0" devices="tripinfo_WE_273" vType="car" speedFactor="1.06" vaporized=""/>
    <tripinfo id="NS_245" depart="245.00" departLane="2i_0" departPos="4.10" departSpeed="0.00" departDelay="0.00" arrival="366.00" arrivalLane="3o_0" arrivalPos="492.80" arrivalSpeed="10.65" duration="121.00" routeLength="995.70" waitingTime="35.00" waitingCount="1" stopTime="0.00" timeLoss="47.31" rerouteNo="0" devices="tripinfo_NS_245" vType="car" speedFactor="0.97" vaporized=""/>
    <tripinfo id="NS_293" depart="293.00" departLane="2i_0" departPos="4.10" departSpeed="0.00" departDelay="0.00" arrival="368.00" arrivalLane="1o_0" arrivalPos="492.80" arrivalSpeed="11.68" duration="75.00" routeLength="995.90" waitingTime="0.00" waitingCount="0" stopTime="0.00" timeLoss="8.39" rerouteNo="0" devices="tripinfo_NS_293" vType="car" speedFactor="1.07" vaporized=""/>
    <tripinfo id="NS_259" depart="259.00" departLane="2i_0" departPos="4.10" departSpeed="0.00" departDelay="0.00" arrival="371.00" arrivalLane="4o_0" arrivalPos="492.80" arrivalSpeed="8.74" duration="112.00" routeLength="990.53" waitingTime="19.00" waitingCount="1" stopTime="0.00" timeLoss="33.25" rerouteNo="0" devices="tripinfo_NS_259" vType="car" speedFactor="0.89" vaporized=""/>
    <tripinfo id="NS_265" depart="265.00" departLane="2i_0" departPos="4.10" departSpeed="0.00" departDelay="0.00" arrival="373.00" arrivalLane="4o_0" arrivalPos="492.80" arrivalSpeed="10.17" duration="108.00" routeLength="990.53" waitingTime="16.00" waitingCount="1" stopTime="0.00" timeLoss="31.57" rerouteNo="0" devices="tripinfo_NS_265" vType="car" speedFactor="0.92" vaporized=""/>
    <tripinfo id="NS_269" depart="269.00" departLane="2i_0" departPos="4.10" departSpeed="0.00" departDelay="0.00" arrival="375.00" arrivalLane="4o_0" arrivalPos="492.80" arrivalSpeed="11.42" duration="106.00" routeLength="990.53" waitingTime="12.00" waitingCount="1" stopTime="0.00" timeLoss="41.09" rerouteNo="0" devices="tripinfo_NS_269" vType="car" speedFactor="1.09" vaporized=""/>
    <tripinfo id="WE_277" depart="277.00" departLane="1i_0" departPos="4.10" departSpeed="0.00" departDelay="0.00" arrival="382.00" arrivalLane="4o_0" arrivalPos="492.80" arrivalSpeed="11.51" duration="105.00" routeLength="995.70" waitingTime="27.00" waitingCount="1" stopTime="0.00" timeLoss="41.31" rerouteNo="0" devices="tripinfo_WE_277" vType="car" speedFactor="1.12" vaporized=""/>
    <tripinfo id="WE_283" depart="283.00" departLane="1i_0" departPos="4.10" departSpeed="0.00" departDelay="0.00" arrival="384.00" arrivalLane="3o_0" arrivalPos="492.80" arrivalSpeed="10.93" duration="101.00" routeLength="990.53" waitingTime="22.00" waitingCount="1" stopTime="0.00" timeLoss="36.83" rerouteNo="0" devices="tripinfo_WE_283" vType="car" speedFactor="1.10" vaporized=""/>
    <tripinfo id="SN_28" depart="28.00" departLane="3i_0" departPos="4.10" departSpeed="0.00" departDelay="0.00" arrival="386.00" arrivalLane="2o_0" arrivalPos="492.80" arrivalSpeed="11.12" duration="358.00" routeLength="990.53" waitingTime="263.00" waitingCount="3" stopTime="0.00" timeLoss="288.96" rerouteNo="0" devices="tripinfo_SN_28" vType="car" speedFactor="1.03" vaporized=""/>
    <tripinfo id="NS_312" depart="312.00" departLane="2i_0" departPos="4.10" departSpeed="0.00" departDelay="0.00" arrival="391.00" arrivalLane="1o_0" arrivalPos="492.80" arrivalSpeed="10.72" duration="79.00" routeLength="995.90" waitingTime="0.00" waitingCount="0" stopTime="0.00" timeLoss="8.61" rerouteNo="0" devices="tripinfo_NS_312" vType="car" speedFactor="1.01" vaporized=""/>
    <tripinfo id="EW_41" depart="41.00" departLane="4i_0" departPos="4.10" departSpeed="0.00" departDelay="0.00" arrival="393.00" arrivalLane="2o_0" arrivalPos="492.80" arrivalSpeed="10.21" duration="352.00" routeLength="995.70" waitingTime="259.00" waitingCount="2" stopTime="0.00" timeLoss="275.77" rerouteNo="0" devices="tripinfo_EW_41" vType="car" speedFactor="0.93" vaporized=""/>
    <tripinfo id="NS_323" depart="323.00" departLane="2i_0" departPos="4.10" departSpeed="0.00" departDelay="0.00" arrival="397.00" arrivalLane="1o_0" arrivalPos="492.80" arrivalSpeed="11.61" duration="74.00" routeLength="995.90" waitingTime="0.00" waitingCount="0" stopTime="0.00" timeLoss="8.92" rerouteNo="0" devices="tripinfo_NS_323" vType="car" speedFactor="1.10" vaporized=""/>
    <tripinfo id="NS_308" depart="308.00" departLane="2i_0" departPos="4.10" departSpeed="0.00" departDelay="0.00" arrival="398.00" arrivalLane="4o_0" arrivalPos="492.80" arrivalSpeed="9.20" duration="90.00" routeLength="990.53" waitingTime="0.00" waitingCount="0" stopTime="0.00" timeLoss="8.52" rerouteNo="0" devices="tripinfo_NS_308" vType="car" speedFactor="0.87" vaporized=""/>
    <tripinfo id="WE_287" depart="287.00" departLane="1i_0" departPos="4.10" departSpeed="0.00" departDelay="0.00" arrival="400.00" arrivalLane="4o_0" arrivalPos="492.80" arrivalSpeed="10.56" duration="113.00" routeLength="995.70" waitingTime="20.00" waitingCount="2" stopTime="0.00" timeLoss="39.80" rerouteNo="0" devices="tripinfo_WE_287" vType="car" speedFactor="0.97" vaporized=""/>
    <tripinfo id="SN_69" depart="69.00" departLane="3i_0" departPos="4.10" departSpeed="0.00" departDelay="0.00" arrival="408.00" arrivalLane="2o_0" arrivalPos="492.80" arrivalSpeed="8.43" duration="339.00" routeLength="990.53" waitingTime="236.00" waitingCount="2" stopTime="0.00" timeLoss="253.67" rerouteNo="0" devices="tripinfo_SN_69" vType="car" speedFactor="0.83" vaporized=""/>
    <tripinfo id="EW_43" depart="44.00" departLane="4i_0" departPos="4.10" departSpeed="0.00" departDelay="1.00" arrival="410.00" arrivalLane="2o_0" arrivalPos="492.80" arrivalSpeed="9.13" duration="366.00" routeLength="995.70" waitingTime="261.00" waitingCount="2" stopTime="0.00" timeLoss="285.27" rerouteNo="0" devices="tripinfo_EW_43" vType="car" speedFactor="0.88" vaporized=""/>
    <tripinfo id="EW_72" depart="72.00" departLane="4i_0" departPos="4.10" departSpeed="0.00" departDelay="0.00" arrival="411.00" arrivalLane="1o_0" arrivalPos="492.80" arrivalSpeed="9.21" duration="339.00" routeLength="990.53" waitingTime="234.00" waitingCount="2" stopTime="0.00" timeLoss="258.42" rerouteNo="0" devices="tripinfo_EW_72" vType="car" speedFactor="0.87" vaporized=""/>
    <tripinfo id="WE_329" depart="329.00" departLane="1i_0" departPos="4.10" departSpeed="0.00" departDelay="0.00" arrival="411.00" arrivalLane="3o_0" arrivalPos="492.80" arrivalSpeed="10.59" duration="82.00" routeLength="990.53" waitingTime="0.00" waitingCount="0" stopTime="0.00" timeLoss="11.48" rerouteNo="0" devices="tripinfo_WE_329" vType="car" speedFactor="1.00" vaporized=""/>
    <tripinfo id="SN_73" depart="73.00" departLane="3i_0" departPos="4.10" departSpeed="0.00" departDelay="0.00" arrival="412.00" arrivalLane="2o_0" arrivalPos="492.80" arrivalSpeed="8.91" duration="339.00" routeLength="990.53" waitingTime="237.00" waitingCount="3" stopTime="0.00" timeLoss="261.93" rerouteNo="0" devices="tripinfo_SN_73" vType="car" speedFactor="0.92" vaporized=""/>
    <tripinfo id="WE_293" depart="293.00" departLane="1i_0" departPos="4.10" departSpeed="0.00" departDelay="0.00" arrival="414.00" arrivalLane="2o_0" arrivalPos="492.80" arrivalSpeed="9.46" duration="121.00" routeLength="995.90" waitingTime="19.00" waitingCount="3" stopTime="0.00" timeLoss="41.43" rerouteNo="0" devices="tripinfo_WE_293" vType="car" speedFactor="0.89" vaporized=""/>
    <tripinfo id="WE_310" depart="310.00" departLane="1i_0" departPos="4.10" departSpeed="0.00" departDelay="0.00" arrival="415.00" arrivalLane="2o_0" arrivalPos="492.80" arrivalSpeed="11.20" duration="105.00" routeLength="995.90" waitingTime="7.00" waitingCount="2" stopTime="0.00" timeLoss="40.66" rerouteNo="0" devices="tripinfo_WE_310" vType="car" speedFactor="1.10" vaporized=""/>
    <tripinfo id="NS_330" depart="333.00" departLane="2i_0" departPos="4.10" departSpeed="0.00" departDelay="3.00" arrival="415.00" arrivalLane="4o_0" arrivalPos="492.80" arrivalSpeed="10.03" duration="82.00" routeLength="990.53" waitingTime="1.00" waitingCount="1" stopTime="0.00" timeLoss="10.93" rerouteNo="0" devices="tripinfo_NS_330" vType="car" speedFactor="0.99" vaporized=""/>