<?xml version="1.0" encoding="UTF-8"?>

<!-- generated on 2024-05-05 23:14:37 by Eclipse SUMO sumo Version 1.19.0
<configuration xmlns:xsi="http://www.w3.org/2001/XMLSchema-instance" xsi:noNamespaceSchemaLocation="http://sumo.dlr.de/xsd/sumoConfiguration.xsd">

    <input>
        <net-file value="twoone.net.xml"/>
        <route-files value="route_gen.rou.xml"/>
    </input>

    <output>
        <tripinfo-output value="tripinfo_epi499.xml"/>
    </output>

    <report>
        <no-warnings value="true"/>
    </report>

    <traci_server>
        <remote-port value="51725"/>
    </traci_server>

</configuration>
-->

<tripinfos xmlns:xsi="http://www.w3.org/2001/XMLSchema-instance" xsi:noNamespaceSchemaLocation="http://sumo.dlr.de/xsd/tripinfo_file.xsd">
    <tripinfo id="SN_5" depart="5.00" departLane="3i_0" departPos="4.10" departSpeed="0.00" departDelay="0.00" arrival="82.00" arrivalLane="4o_0" arrivalPos="492.80" arrivalSpeed="11.60" duration="77.00" routeLength="995.90" waitingTime="0.00" waitingCount="0" stopTime="0.00" timeLoss="9.88" rerouteNo="0" devices="tripinfo_SN_5" vType="car" speedFactor="1.06" vaporized=""/>
    <tripinfo id="NS_21" depart="21.00" departLane="2i_0" departPos="4.10" departSpeed="0.00" departDelay="0.00" arrival="99.00" arrivalLane="4o_0" arrivalPos="492.80" arrivalSpeed="10.22" duration="78.00" routeLength="990.53" waitingTime="0.00" waitingCount="0" stopTime="0.00" timeLoss="8.09" rerouteNo="0" devices="tripinfo_NS_21" vType="car" speedFactor="1.01" vaporized=""/>
    <tripinfo id="SN_13" depart="13.00" departLane="3i_0" departPos="4.10" departSpeed="0.00" departDelay="0.00" arrival="103.00" arrivalLane="1o_0" arrivalPos="492.80" arrivalSpeed="9.66" duration="90.00" routeLength="995.70" waitingTime="2.00" waitingCount="1" stopTime="0.00" timeLoss="14.27" rerouteNo="0" devices="tripinfo_SN_13" vType="car" speedFactor="0.94" vaporized=""/>
    <tripinfo id="SN_26" depart="26.00" departLane="3i_0" departPos="4.10" departSpeed="0.00" departDelay="0.00" arrival="107.00" arrivalLane="4o_0" arrivalPos="492.80" arrivalSpeed="11.89" duration="81.00" routeLength="995.90" waitingTime="1.00" waitingCount="1" stopTime="0.00" timeLoss="14.98" rerouteNo="0" devices="tripinfo_SN_26" vType="car" speedFactor="1.08" vaporized=""/>
    <tripinfo id="SN_31" depart="31.00" departLane="3i_0" departPos="4.10" departSpeed="0.00" departDelay="0.00" arrival="110.00" arrivalLane="2o_0" arrivalPos="492.80" arrivalSpeed="10.41" duration="79.00" routeLength="990.53" waitingTime="0.00" waitingCount="0" stopTime="0.00" timeLoss="10.62" rerouteNo="0" devices="tripinfo_SN_31" vType="car" speedFactor="1.03" vaporized=""/>
    <tripinfo id="NS_37" depart="37.00" departLane="2i_0" departPos="4.10" departSpeed="0.00" departDelay="0.00" arrival="114.00" arrivalLane="1o_0" arrivalPos="492.80" arrivalSpeed="10.64" duration="77.00" routeLength="995.90" waitingTime="0.00" waitingCount="0" stopTime="0.00" timeLoss="8.97" rerouteNo="0" devices="tripinfo_NS_37" vType="car" speedFactor="1.05" vaporized=""/>
    <tripinfo id="WE_52" depart="52.00" departLane="1i_0" departPos="4.10" departSpeed="0.00" departDelay="0.00" arrival="128.00" arrivalLane="3o_0" arrivalPos="492.80" arrivalSpeed="10.76" duration="76.00" routeLength="990.53" waitingTime="0.00" waitingCount="0" stopTime="0.00" timeLoss="7.24" rerouteNo="0" devices="tripinfo_WE_52" vType="car" speedFactor="1.03" vaporized=""/>
    <tripinfo id="SN_35" depart="35.00" departLane="3i_0" departPos="4.10" departSpeed="0.00" departDelay="0.00" arrival="132.00" arrivalLane="2o_0" arrivalPos="492.80" arrivalSpeed="8.32" duration="97.00" routeLength="990.53" waitingTime="0.00" waitingCount="0" stopTime="0.00" timeLoss="12.19" rerouteNo="0" devices="tripinfo_SN_35" vType="car" speedFactor="0.83" vaporized=""/>
    <tripinfo id="WE_40" depart="40.00" departLane="1i_0" departPos="4.10" departSpeed="0.00" departDelay="0.00" arrival="134.00" arrivalLane="2o_0" arrivalPos="492.80" arrivalSpeed="9.15" duration="94.00" routeLength="995.90" waitingTime="0.00" waitingCount="0" stopTime="0.00" timeLoss="13.91" rerouteNo="0" devices="tripinfo_WE_40" vType="car" speedFactor="0.89" vaporized=""/>
    <tripinfo id="NS_43" depart="43.00" departLane="2i_0" departPos="4.10" departSpeed="0.00" departDelay="0.00" arrival="134.00" arrivalLane="4o_0" arrivalPos="492.80" arrivalSpeed="8.87" duration="91.00" routeLength="990.53" waitingTime="0.00" waitingCount="0" stopTime="0.00" timeLoss="8.66" rerouteNo="0" devices="tripinfo_NS_43" vType="car" speedFactor="0.86" vaporized=""/>
    <tripinfo id="WE_66" depart="66.00" departLane="1i_0" departPos="4.10" departSpeed="0.00" departDelay="0.00" arrival="137.00" arrivalLane="2o_0" arrivalPos="492.80" arrivalSpeed="12.30" duration="71.00" routeLength="995.90" waitingTime="0.00" waitingCount="0" stopTime="0.00" timeLoss="7.64" rerouteNo="0" devices="tripinfo_WE_66" vType="car" speedFactor="1.12" vaporized=""/>
    <tripinfo id="EW_47" depart="47.00" departLane="4i_0" departPos="4.10" departSpeed="0.00" departDelay="0.00" arrival="142.00" arrivalLane="3o_0" arrivalPos="492.80" arrivalSpeed="11.42" duration="95.00" routeLength="995.90" waitingTime="16.00" waitingCount="1" stopTime="0.00" timeLoss="29.66" rerouteNo="0" devices="tripinfo_EW_47" vType="car" speedFactor="1.09" vaporized=""/>
    <tripinfo id="SN_41" depart="41.00" departLane="3i_0" departPos="4.10" departSpeed="0.00" departDelay="0.00" arrival="152.00" arrivalLane="1o_0" arrivalPos="492.80" arrivalSpeed="10.23" duration="111.00" routeLength="995.70" waitingTime="18.00" waitingCount="2" stopTime="0.00" timeLoss="35.53" rerouteNo="0" devices="tripinfo_SN_41" vType="car" speedFactor="0.94" vaporized=""/>
    <tripinfo id="EW_66" depart="66.00" departLane="4i_0" departPos="4.10" departSpeed="0.00" departDelay="0.00" arrival="158.00" arrivalLane="3o_0" arrivalPos="492.80" arrivalSpeed="10.11" duration="92.00" routeLength="995.90" waitingTime="7.00" waitingCount="1" stopTime="0.00" timeLoss="20.85" rerouteNo="0" devices="tripinfo_EW_66" vType="car" speedFactor="0.99" vaporized=""/>
    <tripinfo id="WE_75" depart="75.00" departLane="1i_0" departPos="4.10" departSpeed="0.00" departDelay="0.00" arrival="159.00" arrivalLane="2o_0" arrivalPos="492.80" arrivalSpeed="10.38" duration="84.00" routeLength="995.90" waitingTime="0.00" waitingCount="0" stopTime="0.00" timeLoss="8.37" rerouteNo="0" devices="tripinfo_WE_75" vType="car" speedFactor="0.94" vaporized=""/>
    <tripinfo id="SN_62" depart="62.00" departLane="3i_0" departPos="4.10" departSpeed="0.00" departDelay="0.00" arrival="161.00" arrivalLane="2o_0" arrivalPos="492.80" arrivalSpeed="11.08" duration="99.00" routeLength="990.53" waitingTime="7.00" waitingCount="3" stopTime="0.00" timeLoss="31.14" rerouteNo="0" devices="tripinfo_SN_62" vType="car" speedFactor="1.05" vaporized=""/>
    <tripinfo id="WE_79" depart="79.00" departLane="1i_0" departPos="4.10" departSpeed="0.00" departDelay="0.00" arrival="162.00" arrivalLane="2o_0" arrivalPos="492.80" arrivalSpeed="11.09" duration="83.00" routeLength="995.90" waitingTime="0.00" waitingCount="0" stopTime="0.00" timeLoss="13.62" rerouteNo="0" devices="tripinfo_WE_79" vType="car" speedFactor="1.02" vaporized=""/>
    <tripinfo id="WE_80" depart="81.00" departLane="1i_0" departPos="4.10" departSpeed="0.00" departDelay="1.00" arrival="162.00" arrivalLane="3o_0" arrivalPos="492.80" arrivalSpeed="11.18" duration="81.00" routeLength="990.53" waitingTime="0.00" waitingCount="0" stopTime="0.00" timeLoss="11.48" rerouteNo="0" devices="tripinfo_WE_80" vType="car" speedFactor="1.01" vaporized=""/>
    <tripinfo id="NS_76" depart="76.00" departLane="2i_0" departPos="10.10" departSpeed="0.00" departDelay="0.00" arrival="166.00" arrivalLane="3o_0" arrivalPos="492.80" arrivalSpeed="10.33" duration="90.00" routeLength="989.70" waitingTime="0.00" waitingCount="0" stopTime="0.00" timeLoss="17.40" rerouteNo="0" devices="tripinfo_NS_76" vType="truck" speedFactor="0.97" vaporized=""/>
    <tripinfo id="NS_78" depart="80.00" departLane="2i_0" departPos="4.10" departSpeed="0.00" departDelay="2.00" arrival="168.00" arrivalLane="3o_0" arrivalPos="492.80" arrivalSpeed="12.13" duration="88.00" routeLength="995.70" waitingTime="0.00" waitingCount="0" stopTime="0.00" timeLoss="27.03" rerouteNo="0" devices="tripinfo_NS_78" vType="car" speedFactor="1.16" vaporized=""/>
    <tripinfo id="WE_90" depart="90.00" departLane="1i_0" departPos="4.10" departSpeed="0.00" departDelay="0.00" arrival="179.00" arrivalLane="4o_0" arrivalPos="492.80" arrivalSpeed="9.78" duration="89.00" routeLength="995.70" waitingTime="0.00" waitingCount="0" stopTime="0.00" timeLoss="8.86" rerouteNo="0" devices="tripinfo_WE_90" vType="car" speedFactor="0.89" vaporized=""/>
    <tripinfo id="NS_106" depart="110.00" departLane="2i_0" departPos="4.10" departSpeed="0.00" departDelay="4.00" arrival="188.00" arrivalLane="3o_0" arrivalPos="492.80" arrivalSpeed="11.37" duration="78.00" routeLength="995.70" waitingTime="0.00" waitingCount="0" stopTime="0.00" timeLoss="15.64" rerouteNo="0" devices="tripinfo_NS_106" vType="car" speedFactor="1.13" vaporized=""/>
    <tripinfo id="WE_98" depart="98.00" departLane="1i_0" departPos="4.10" departSpeed="0.00" departDelay="0.00" arrival="190.00" arrivalLane="4o_0" arrivalPos="492.80" arrivalSpeed="9.32" duration="92.00" routeLength="995.70" waitingTime="0.00" waitingCount="0" stopTime="0.00" timeLoss="10.24" rerouteNo="0" devices="tripinfo_WE_98" vType="car" speedFactor="0.87" vaporized=""/>
    <tripinfo id="NS_103" depart="103.00" departLane="2i_0" departPos="4.10" departSpeed="0.00" departDelay="0.00" arrival="191.00" arrivalLane="4o_0" arrivalPos="492.80" arrivalSpeed="9.64" duration="88.00" routeLength="990.53" waitingTime="0.00" waitingCount="0" stopTime="0.00" timeLoss="11.43" rerouteNo="0" devices="tripinfo_NS_103" vType="car" speedFactor="0.92" vaporized=""/>
    <tripinfo id="SN_72" depart="72.00" departLane="3i_0" departPos="4.10" departSpeed="0.00" departDelay="0.00" arrival="193.00" arrivalLane="4o_0" arrivalPos="492.80" arrivalSpeed="10.19" duration="121.00" routeLength="995.90" waitingTime="25.00" waitingCount="2" stopTime="0.00" timeLoss="44.67" rerouteNo="0" devices="tripinfo_SN_72" vType="car" speedFactor="0.93" vaporized=""/>
    <tripinfo id="NS_104" depart="106.00" departLane="2i_0" departPos="4.10" departSpeed="0.00" departDelay="2.00" arrival="195.00" arrivalLane="4o_0" arrivalPos="492.80" arrivalSpeed="9.79" duration="89.00" routeLength="990.53" waitingTime="0.00" waitingCount="0" stopTime="0.00" timeLoss="14.82" rerouteNo="0" devices="tripinfo_NS_104" vType="car" speedFactor="0.95" vaporized=""/>
    <tripinfo id="NS_114" depart="114.00" departLane="2i_0" departPos="4.10" departSpeed="0.00" departDelay="0.00" arrival="196.00" arrivalLane="3o_0" arrivalPos="492.80" arrivalSpeed="12.05" duration="82.00" routeLength="995.70" waitingTime="3.00" waitingCount="1" stopTime="0.00" timeLoss="21.49" rerouteNo="0" devices="tripinfo_NS_114" vType="car" speedFactor="1.18" vaporized=""/>
    <tripinfo id="EW_86" depart="86.00" departLane="4i_0" departPos="4.10" departSpeed="0.00" departDelay="0.00" arrival="197.00" arrivalLane="1o_0" arrivalPos="492.80" arrivalSpeed="10.13" duration="111.00" routeLength="990.53" waitingTime="18.00" waitingCount="1" stopTime="0.00" timeLoss="38.22" rerouteNo="0" devices="tripinfo_EW_86" vType="car" speedFactor="0.97" vaporized=""/>
    <tripinfo id="EW_74" depart="74.00" departLane="4i_0" departPos="4.10" departSpeed="0.00" departDelay="0.00" arrival="198.00" arrivalLane="2o_0" arrivalPos="492.80" arrivalSpeed="9.68" duration="124.00" routeLength="995.70" waitingTime="26.00" waitingCount="1" stopTime="0.00" timeLoss="43.55" rerouteNo="0" devices="tripinfo_EW_74" vType="car" speedFactor="0.88" vaporized=""/>
    <tripinfo id="WE_117" depart="117.00" departLane="1i_0" departPos="4.10" departSpeed="0.00" departDelay="0.00" arrival="200.00" arrivalLane="2o_0" arrivalPos="492.80" arrivalSpeed="10.49" duration="83.00" routeLength="995.90" waitingTime="0.00" waitingCount="0" stopTime="0.00" timeLoss="12.33" rerouteNo="0" devices="tripinfo_WE_117" vType="car" speedFactor="1.01" vaporized=""/>
    <tripinfo id="SN_107" depart="107.00" departLane="3i_0" departPos="10.10" departSpeed="0.00" departDelay="0.00" arrival="206.00" arrivalLane="2o_0" arrivalPos="492.80" arrivalSpeed="10.64" duration="99.00" routeLength="984.53" waitingTime="2.00" waitingCount="1" stopTime="0.00" timeLoss="26.54" rerouteNo="0" devices="tripinfo_SN_107" vType="truck" speedFactor="0.97" vaporized=""/>
    <tripinfo id="SN_95" depart="95.00" departLane="3i_0" departPos="4.10" departSpeed="0.00" departDelay="0.00" arrival="208.00" arrivalLane="4o_0" arrivalPos="492.80" arrivalSpeed="8.93" duration="113.00" routeLength="995.90" waitingTime="6.00" waitingCount="2" stopTime="0.00" timeLoss="26.78" rerouteNo="0" devices="tripinfo_SN_95" vType="car" speedFactor="0.83" vaporized=""/>
    <tripinfo id="WE_124" depart="124.00" departLane="1i_0" departPos="4.10" departSpeed="0.00" departDelay="0.00" arrival="209.00" arrivalLane="2o_0" arrivalPos="492.80" arrivalSpeed="11.18" duration="85.00" routeLength="995.90" waitingTime="0.00" waitingCount="0" stopTime="0.00" timeLoss="15.06" rerouteNo="0" devices="tripinfo_WE_124" vType="car" speedFactor="1.02" vaporized=""/>
    <tripinfo id="WE_130" depart="130.00" departLane="1i_0" departPos="4.10" departSpeed="0.00" departDelay="0.00" arrival="210.00" arrivalLane="2o_0" arrivalPos="492.80" arrivalSpeed="11.44" duration="80.00" routeLength="995.90" waitingTime="0.00" waitingCount="0" stopTime="0.00" timeLoss="15.94" rerouteNo="0" devices="tripinfo_WE_130" vType="car" speedFactor="1.10" vaporized=""/>
    <tripinfo id="WE_144" depart="144.00" departLane="1i_0" departPos="4.10" departSpeed="0.00" departDelay="0.00" arrival="220.00" arrivalLane="3o_0" arrivalPos="492.80" arrivalSpeed="10.46" duration="76.00" routeLength="990.53" waitingTime="0.00" waitingCount="0" stopTime="0.00" timeLoss="8.07" rerouteNo="0" devices="tripinfo_WE_144" vType="car" speedFactor="1.04" vaporized=""/>
    <tripinfo id="WE_154" depart="154.00" departLane="1i_0" departPos="4.10" departSpeed="0.00" departDelay="0.00" arrival="241.00" arrivalLane="3o_0" arrivalPos="492.80" arrivalSpeed="8.93" duration="87.00" routeLength="990.53" waitingTime="0.00" waitingCount="0" stopTime="0.00" timeLoss="8.72" rerouteNo="0" devices="tripinfo_WE_154" vType="car" speedFactor="0.90" vaporized=""/>
    <tripinfo id="SN_125" depart="125.00" departLane="3i_0" departPos="4.10" departSpeed="0.00" departDelay="0.00" arrival="243.00" arrivalLane="4o_0" arrivalPos="492.80" arrivalSpeed="10.01" duration="118.00" routeLength="995.90" waitingTime="27.00" waitingCount="1" stopTime="0.00" timeLoss="45.12" rerouteNo="0" devices="tripinfo_SN_125" vType="car" speedFactor="0.97" vaporized=""/>
    <tripinfo id="NS_129" depart="129.00" departLane="2i_0" departPos="4.10" departSpeed="0.00" departDelay="0.00" arrival="243.00" arrivalLane="3o_0" arrivalPos="492.80" arrivalSpeed="12.71" duration="114.00" routeLength="995.70" waitingTime="29.00" waitingCount="1" stopTime="0.00" timeLoss="53.46" rerouteNo="0" devices="tripinfo_NS_129" vType="car" speedFactor="1.18" vaporized=""/>
    <tripinfo id="NS_143" depart="143.00" departLane="2i_0" departPos="4.10" departSpeed="0.00" departDelay="0.00" arrival="246.00" arrivalLane="4o_0" arrivalPos="492.80" arrivalSpeed="11.06" duration="103.00" routeLength="990.53" waitingTime="15.00" waitingCount="1" stopTime="0.00" timeLoss="34.58" rerouteNo="0" devices="tripinfo_NS_143" vType="car" speedFactor="1.04" vaporized=""/>
    <tripinfo id="NS_133" depart="134.00" departLane="2i_0" departPos="4.10" departSpeed="0.00" departDelay="1.00" arrival="248.00" arrivalLane="1o_0" arrivalPos="492.80" arrivalSpeed="9.57" duration="114.00" routeLength="995.90" waitingTime="22.00" waitingCount="2" stopTime="0.00" timeLoss="39.67" rerouteNo="0" devices="tripinfo_NS_133" vType="car" speedFactor="0.96" vaporized=""/>
    <tripinfo id="NS_170" depart="170.00" departLane="2i_0" departPos="4.10" departSpeed="0.00" departDelay="0.00" arrival="249.00" arrivalLane="1o_0" arrivalPos="492.80" arrivalSpeed="11.97" duration="79.00" routeLength="995.90" waitingTime="0.00" waitingCount="0" stopTime="0.00" timeLoss="18.54" rerouteNo="0" devices="tripinfo_NS_170" vType="car" speedFactor="1.17" vaporized=""/>
    <tripinfo id="NS_178" depart="178.00" departLane="2i_0" departPos="4.10" departSpeed="0.00" departDelay="0.00" arrival="251.00" arrivalLane="1o_0" arrivalPos="492.80" arrivalSpeed="10.92" duration="73.00" routeLength="995.90" waitingTime="0.00" waitingCount="0" stopTime="0.00" timeLoss="8.27" rerouteNo="0" devices="tripinfo_NS_178" vType="car" speedFactor="1.10" vaporized=""/>
    <tripinfo id="WE_176" depart="176.00" departLane="1i_0" departPos="4.10" departSpeed="0.00" departDelay="0.00" arrival="252.00" arrivalLane="3o_0" arrivalPos="492.80" arrivalSpeed="10.21" duration="76.00" routeLength="990.53" waitingTime="0.00" waitingCount="0" stopTime="0.00" timeLoss="6.92" rerouteNo="0" devices="tripinfo_WE_176" vType="car" speedFactor="1.02" vaporized=""/>
    <tripinfo id="NS_181" depart="181.00" departLane="2i_0" departPos="4.10" departSpeed="0.00" departDelay="0.00" arrival="262.00" arrivalLane="3o_0" arrivalPos="492.80" arrivalSpeed="10.38" duration="81.00" routeLength="995.70" waitingTime="0.00" waitingCount="0" stopTime="0.00" timeLoss="10.09" rerouteNo="0" devices="tripinfo_NS_181" vType="car" speedFactor="1.00" vaporized=""/>
    <tripinfo id="WE_188" depart="188.00" departLane="1i_0" departPos="4.10" departSpeed="0.00" departDelay="0.00" arrival="264.00" arrivalLane="3o_0" arrivalPos="492.80" arrivalSpeed="11.35" duration="76.00" routeLength="990.53" waitingTime="0.00" waitingCount="0" stopTime="0.00" timeLoss="12.29" rerouteNo="0" devices="tripinfo_WE_188" vType="car" speedFactor="1.12" vaporized=""/>
    <tripinfo id="NS_185" depart="185.00" departLane="2i_0" departPos="10.10" departSpeed="0.00" departDelay="0.00" arrival="267.00" arrivalLane="4o_0" arrivalPos="492.80" arrivalSpeed="10.73" duration="82.00" routeLength="984.53" waitingTime="0.00" waitingCount="0" stopTime="0.00" timeLoss="12.32" rerouteNo="0" devices="tripinfo_NS_185" vType="truck" speedFactor="1.01" vaporized=""/>
    <tripinfo id="NS_187" depart="190.00" departLane="2i_0" departPos="10.10" departSpeed="0.00" departDelay="3.00" arrival="278.00" arrivalLane="3o_0" arrivalPos="492.80" arrivalSpeed="10.35" duration="88.00" routeLength="989.70" waitingTime="0.00" waitingCount="0" stopTime="0.00" timeLoss="16.38" rerouteNo="0" devices="tripinfo_NS_187" vType="truck" speedFactor="0.98" vaporized=""/>
    <tripinfo id="WE_206" depart="206.00" departLane="1i_0" departPos="4.10" departSpeed="0.00" departDelay="0.00" arrival="286.00" arrivalLane="2o_0" arrivalPos="492.80" arrivalSpeed="9.97" duration="80.00" routeLength="995.90" waitingTime="0.00" waitingCount="0" stopTime="0.00" timeLoss="7.85" rerouteNo="0" devices="tripinfo_WE_206" vType="car" speedFactor="0.99" vaporized=""/>
    <tripinfo id="WE_213" depart="215.00" departLane="1i_0" departPos="4.10" departSpeed="0.00" departDelay="2.00" arrival="296.00" arrivalLane="4o_0" arrivalPos="492.80" arrivalSpeed="10.97" duration="81.00" routeLength="995.70" waitingTime="0.00" waitingCount="0" stopTime="0.00" timeLoss="12.72" rerouteNo="0" devices="tripinfo_WE_213" vType="car" speedFactor="1.04" vaporized=""/>
    <tripinfo id="WE_209" depart="209.00" departLane="1i_0" departPos="4.10" departSpeed="0.00" departDelay="0.00" arrival="297.00" arrivalLane="2o_0" arrivalPos="492.80" arrivalSpeed="9.67" duration="88.00" routeLength="995.90" waitingTime="0.00" waitingCount="0" stopTime="0.00" timeLoss="9.35" rerouteNo="0" devices="tripinfo_WE_209" vType="car" speedFactor="0.91" vaporized=""/>
    <tripinfo id="WE_210" depart="212.00" departLane="1i_0" departPos="4.10" departSpeed="0.00" departDelay="2.00" arrival="297.00" arrivalLane="3o_0" arrivalPos="492.80" arrivalSpeed="9.45" duration="85.00" routeLength="990.53" waitingTime="0.00" waitingCount="0" stopTime="0.00" timeLoss="7.98" rerouteNo="0" devices="tripinfo_WE_210" vType="car" speedFactor="0.91" vaporized=""/>
    <tripinfo id="WE_221" depart="221.00" departLane="1i_0" departPos="4.10" departSpeed="0.00" departDelay="0.00" arrival="299.00" arrivalLane="2o_0" arrivalPos="492.80" arrivalSpeed="10.33" duration="78.00" routeLength="995.90" waitingTime="0.00" waitingCount="0" stopTime="0.00" timeLoss="8.72" rerouteNo="0" devices="tripinfo_WE_221" vType="car" speedFactor="1.02" vaporized=""/>
    <tripinfo id="NS_230" depart="230.00" departLane="2i_0" departPos="4.10" departSpeed="0.00" departDelay="0.00" arrival="308.00" arrivalLane="3o_0" arrivalPos="492.80" arrivalSpeed="11.53" duration="78.00" routeLength="995.70" waitingTime="0.00" waitingCount="0" stopTime="0.00" timeLoss="10.19" rerouteNo="0" devices="tripinfo_NS_230" vType="car" speedFactor="1.06" vaporized=""/>
    <tripinfo id="EW_115" depart="115.00" departLane="4i_0" departPos="4.10" departSpeed="0.00" departDelay="0.00" arrival="309.00" arrivalLane="3o_0" arrivalPos="492.80" arrivalSpeed="12.03" duration="194.00" routeLength="995.90" waitingTime="113.00" waitingCount="2" stopTime="0.00" timeLoss="132.73" rerouteNo="0" devices="tripinfo_EW_115" vType="car" speedFactor="1.15" vaporized=""/>
    <tripinfo id="WE_235" depart="235.00" departLane="1i_0" departPos="10.10" departSpeed="0.00" departDelay="0.00" arrival="318.00" arrivalLane="2o_0" arrivalPos="492.80" arrivalSpeed="10.78" duration="83.00" routeLength="989.90" waitingTime="0.00" waitingCount="0" stopTime="0.00" timeLoss="13.53" rerouteNo="0" devices="tripinfo_WE_235" vType="truck" speedFactor="1.02" vaporized=""/>
    <tripinfo id="SN_131" depart="131.00" departLane="3i_0" departPos="4.10" departSpeed="0.00" departDelay="0.00" arrival="320.00" arrivalLane="4o_0" arrivalPos="492.80" arrivalSpeed="9.09" duration="189.00" routeLength="995.90" waitingTime="89.00" waitingCount="2" stopTime="0.00" timeLoss="110.71" rerouteNo="0" devices="tripinfo_SN_131" vType="car" speedFactor="0.90" vaporized=""/>
    <tripinfo id="NS_231" depart="233.00" departLane="2i_0" departPos="4.10" departSpeed="0.00" departDelay="2.00" arrival="320.00" arrivalLane="1o_0" arrivalPos="492.80" arrivalSpeed="9.95" duration="87.00" routeLength="995.90" waitingTime="2.00" waitingCount="1" stopTime="0.00" timeLoss="12.60" rerouteNo="0" devices="tripinfo_NS_231" vType="car" speedFactor="0.96" vaporized=""/>
    <tripinfo id="NS_233" depart="236.00" departLane="2i_0" departPos="4.10" departSpeed="0.00" departDelay="3.00" arrival="326.00" arrivalLane="3o_0" arrivalPos="492.80" arrivalSpeed="10.82" duration="90.00" routeLength="995.70" waitingTime="0.00" waitingCount="0" stopTime="0.00" timeLoss="17.88" rerouteNo="0" devices="tripinfo_NS_233" vType="car" speedFactor="0.98" vaporized=""/>
    <tripinfo id="EW_120" depart="120.00" departLane="4i_0" departPos="4.10" departSpeed="0.00" departDelay="0.00" arrival="328.00" arrivalLane="3o_0" arrivalPos="492.80" arrivalSpeed="11.88" duration="208.00" routeLength="995.90" waitingTime="119.00" waitingCount="3" stopTime="0.00" timeLoss="147.07" rerouteNo="0" devices="tripinfo_EW_120" vType="car" speedFactor="1.17" vaporized=""/>
    <tripinfo id="EW_122" depart="123.00" departLane="4i_0" departPos="4.10" departSpeed="0.00" departDelay="1.00" arrival="330.00" arrivalLane="3o_0" arrivalPos="492.80" arrivalSpeed="10.94" duration="207.00" routeLength="995.90" waitingTime="116.00" waitingCount="2" stopTime="0.00" timeLoss="135.61" rerouteNo="0" devices="tripinfo_EW_122" vType="car" speedFactor="0.99" vaporized=""/>
    <tripinfo id="EW_161" depart="161.00" departLane="4i_0" departPos="4.10" departSpeed="0.00" departDelay="0.00" arrival="338.00" arrivalLane="3o_0" arrivalPos="492.80" arrivalSpeed="9.47" duration="177.00" routeLength="995.90" waitingTime="74.00" waitingCount="2" stopTime="0.00" timeLoss="96.24" rerouteNo="0" devices="tripinfo_EW_161" vType="car" speedFactor="0.88" vaporized=""/>
    <tripinfo id="EW_162" depart="164.00" departLane="4i_0" departPos="4.10" departSpeed="0.00" departDelay="2.00" arrival="343.00" arrivalLane="2o_0" arrivalPos="492.80" arrivalSpeed="8.52" duration="179.00" routeLength="995.70" waitingTime="74.00" waitingCount="2" stopTime="0.00" timeLoss="95.84" rerouteNo="0" devices="tripinfo_EW_162" vType="car" speedFactor="0.85" vaporized=""/>
    <tripinfo id="EW_169" depart="169.00" departLane="4i_0" departPos="4.10" departSpeed="0.00" departDelay="0.00" arrival="344.00" arrivalLane="1o_0" arrivalPos="492.80" arrivalSpeed="9.41" duration="175.00" routeLength="990.53" waitingTime="70.00" waitingCount="2" stopTime="0.00" timeLoss="92.12" rerouteNo="0" devices="tripinfo_EW_169" vType="car" speedFactor="0.85" vaporized=""/>
    <tripinfo id="SN_136" depart="137.00" departLane="3i_0" departPos="4.10" departSpeed="0.00" departDelay="1.00" arrival="345.00" arrivalLane="2o_0" arrivalPos="492.80" arrivalSpeed="10.89" duration="208.00" routeLength="990.53" waitingTime="100.00" waitingCount="4" stopTime="0.00" timeLoss="143.20" rerouteNo="0" devices="tripinfo_SN_136" vType="car" speedFactor="1.09" vaporized=""/>
    <tripinfo id="SN_132" depart="134.00" departLane="3i_0" departPos="4.10" departSpeed="0.00" departDelay="2.00" arrival="346.00" arrivalLane="1o_0" arrivalPos="492.80" arrivalSpeed="10.42" duration="212.00" routeLength="995.70" waitingTime="103.00" waitingCount="4" stopTime="0.00" timeLoss="142.72" rerouteNo="0" devices="tripinfo_SN_132" vType="car" speedFactor="1.03" vaporized=""/>
    <tripinfo id="NS_244" depart="244.00" departLane="2i_0" departPos="4.10" departSpeed="0.00" departDelay="0.00" arrival="347.00" arrivalLane="1o_0" arrivalPos="492.80" arrivalSpeed="10.46" duration="103.00" routeLength="995.90" waitingTime="10.00" waitingCount="3" stopTime="0.00" timeLoss="32.85" rerouteNo="0" devices="tripinfo_NS_244" vType="car" speedFactor="1.01" vaporized=""/>
    <tripinfo id="NS_265" depart="266.00" departLane="2i_0" departPos="4.10" departSpeed="0.00" departDelay="1.00" arrival="348.00" arrivalLane="4o_0" arrivalPos="492.80" arrivalSpeed="11.58" duration="82.00" routeLength="990.53" waitingTime="0.00" waitingCount="0" stopTime="0.00" timeLoss="20.51" rerouteNo="0" devices="tripinfo_NS_265" vType="car" speedFactor="1.15" vaporized=""/>
    <tripinfo id="SN_149" depart="149.00" departLane="3i_0" departPos="4.10" departSpeed="0.00" departDelay="0.00" arrival="349.00" arrivalLane="1o_0" arrivalPos="492.80" arrivalSpeed="11.69" duration="200.00" routeLength="995.70" waitingTime="93.00" waitingCount="5" stopTime="0.00" timeLoss="134.64" rerouteNo="0" devices="tripinfo_SN_149" vType="car" speedFactor="1.09" vaporized=""/>
    <tripinfo id="NS_262" depart="262.00" departLane="2i_0" departPos="10.10" departSpeed="0.00" departDelay="0.00" arrival="351.00" arrivalLane="1o_0" arrivalPos="492.80" arrivalSpeed="10.78" duration="89.00" routeLength="989.90" waitingTime="0.00" waitingCount="0" stopTime="0.00" timeLoss="19.35" rerouteNo="0" devices="tripinfo_NS_262" vType="truck" speedFactor="1.01" vaporized=""/>
    <tripinfo id="EW_183" depart="183.00" departLane="4i_0" departPos="4.10" departSpeed="0.00" departDelay="0.00" arrival="353.00" arrivalLane="2o_0" arrivalPos="492.80" arrivalSpeed="9.57" duration="170.00" routeLength="995.70" waitingTime="63.00" waitingCount="3" stopTime="0.00" timeLoss="91.09" rerouteNo="0" devices="tripinfo_EW_183" vType="car" speedFactor="0.90" vaporized=""/>
    <tripinfo id="WE_273" depart="273.00" departLane="1i_0" departPos="4.10" departSpeed="0.00" departDelay="0.00" arrival="355.00" arrivalLane="2o_0" arrivalPos="492.80" arrivalSpeed="11.03" duration="82.00" routeLength="995.90" waitingTime="0.00" waitingCount="0" stopTime="0.00" timeLoss="11.11" rerouteNo="0" devices="tripinfo_WE_273" vType="car" speedFactor="1.01" vaporized=""/>
    <tripinfo id="WE_277" depart="277.00" departLane="1i_0" departPos="4.10" departSpeed="0.00" departDelay="0.00" arrival="355.00" arrivalLane="3o_0" arrivalPos="492.80" arrivalSpeed="11.19" duration="78.00" routeLength="990.53" waitingTime="0.00" waitingCount="0" stopTime="0.00" timeLoss="8.53" rerouteNo="0" devices="tripinfo_WE_277" vType="car" speedFactor="1.02" vaporized=""/>
    <tripinfo id="NS_269" depart="269.00" departLane="2i_0" departPos="4.10" departSpeed="0.00" departDelay="0.00" arrival="357.00" arrivalLane="3o_0" arrivalPos="492.80" arrivalSpeed="10.76" duration="88.00" routeLength="995.70" waitingTime="0.00" waitingCount="0" stopTime="0.00" timeLoss="19.54" rerouteNo="0" devices="tripinfo_NS_269" vType="car" speedFactor="1.04" vaporized=""/>
    <tripinfo id="EW_184" depart="186.00" departLane="4i_0" departPos="10.10" departSpeed="0.00" departDelay="2.00" arrival="360.00" arrivalLane="3o_0" arrivalPos="492.80" arrivalSpeed="11.68" duration="174.00" routeLength="989.90" waitingTime="64.00" waitingCount="4" stopTime="0.00" timeLoss="106.89" rerouteNo="0" devices="tripinfo_EW_184" vType="truck" speedFactor="1.07" vaporized=""/>
    <tripinfo id="SN_152" depart="152.00" departLane="3i_0" departPos="4.10" departSpeed="0.00" departDelay="0.00" arrival="361.00" arrivalLane="2o_0" arrivalPos="492.80" arrivalSpeed="10.69" duration="209.00" routeLength="990.53" waitingTime="99.00" waitingCount="6" stopTime="0.00" timeLoss="138.42" rerouteNo="0" devices="tripinfo_SN_152" vType="car" speedFactor="1.00" vaporized=""/>
    <tripinfo id="SN_187" depart="188.00" departLane="3i_0" departPos="4.10" departSpeed="0.00" departDelay="1.00" arrival="363.00" arrivalLane="2o_0" arrivalPos="492.80" arrivalSpeed="11.90" duration="175.00" routeLength="990.53" waitingTime="71.00" waitingCount="4" stopTime="0.00" timeLoss="109.78" rerouteNo="0" devices="tripinfo_SN_187" vType="car" speedFactor="1.08" vaporized=""/>