<?xml version="1.0" encoding="UTF-8"?>

<!-- generated on 2024-05-05 23:14:54 by Eclipse SUMO sumo Version 1.19.0
<configuration xmlns:xsi="http://www.w3.org/2001/XMLSchema-instance" xsi:noNamespaceSchemaLocation="http://sumo.dlr.de/xsd/sumoConfiguration.xsd">

    <input>
        <net-file value="twoone.net.xml"/>
        <route-files value="route_gen.rou.xml"/>
    </input>

    <output>
        <tripinfo-output value="tripinfo_epi500.xml"/>
    </output>

    <report>
        <no-warnings value="true"/>
    </report>

    <traci_server>
        <remote-port value="59363"/>
    </traci_server>

</configuration>
-->

<tripinfos xmlns:xsi="http://www.w3.org/2001/XMLSchema-instance" xsi:noNamespaceSchemaLocation="http://sumo.dlr.de/xsd/tripinfo_file.xsd">
    <tripinfo id="WE_8" depart="8.00" departLane="1i_0" departPos="4.10" departSpeed="0.00" departDelay="0.00" arrival="85.00" arrivalLane="3o_0" arrivalPos="492.80" arrivalSpeed="11.12" duration="77.00" routeLength="990.53" waitingTime="0.00" waitingCount="0" stopTime="0.00" timeLoss="7.19" rerouteNo="0" devices="tripinfo_WE_8" vType="car" speedFactor="1.01" vaporized=""/>
    <tripinfo id="WE_4" depart="4.00" departLane="1i_0" departPos="4.10" departSpeed="0.00" departDelay="0.00" arrival="87.00" arrivalLane="2o_0" arrivalPos="492.80" arrivalSpeed="9.39" duration="83.00" routeLength="995.90" waitingTime="0.00" waitingCount="0" stopTime="0.00" timeLoss="7.29" rerouteNo="0" devices="tripinfo_WE_4" vType="car" speedFactor="0.94" vaporized=""/>
    <tripinfo id="WE_16" depart="16.00" departLane="1i_0" departPos="4.10" departSpeed="0.00" departDelay="0.00" arrival="92.00" arrivalLane="2o_0" arrivalPos="492.80" arrivalSpeed="11.26" duration="76.00" routeLength="995.90" waitingTime="0.00" waitingCount="0" stopTime="0.00" timeLoss="8.03" rerouteNo="0" devices="tripinfo_WE_16" vType="car" speedFactor="1.05" vaporized=""/>
    <tripinfo id="SN_11" depart="11.00" departLane="3i_0" departPos="4.10" departSpeed="0.00" departDelay="0.00" arrival="104.00" arrivalLane="4o_0" arrivalPos="492.80" arrivalSpeed="10.96" duration="93.00" routeLength="995.90" waitingTime="13.00" waitingCount="1" stopTime="0.00" timeLoss="27.19" rerouteNo="0" devices="tripinfo_SN_11" vType="car" speedFactor="1.08" vaporized=""/>
    <tripinfo id="WE_26" depart="26.00" departLane="1i_0" departPos="4.10" departSpeed="0.00" departDelay="0.00" arrival="105.00" arrivalLane="4o_0" arrivalPos="492.80" arrivalSpeed="11.77" duration="79.00" routeLength="995.70" waitingTime="0.00" waitingCount="0" stopTime="0.00" timeLoss="14.27" rerouteNo="0" devices="tripinfo_WE_26" vType="car" speedFactor="1.09" vaporized=""/>
    <tripinfo id="WE_20" depart="20.00" departLane="1i_0" departPos="4.10" departSpeed="0.00" departDelay="0.00" arrival="109.00" arrivalLane="3o_0" arrivalPos="492.80" arrivalSpeed="9.05" duration="89.00" routeLength="990.53" waitingTime="0.00" waitingCount="0" stopTime="0.00" timeLoss="8.65" rerouteNo="0" devices="tripinfo_WE_20" vType="car" speedFactor="0.89" vaporized=""/>
    <tripinfo id="EW_3" depart="3.00" departLane="4i_0" departPos="4.10" departSpeed="0.00" departDelay="0.00" arrival="110.00" arrivalLane="2o_0" arrivalPos="492.80" arrivalSpeed="10.77" duration="107.00" routeLength="995.70" waitingTime="25.00" waitingCount="2" stopTime="0.00" timeLoss="39.71" rerouteNo="0" devices="tripinfo_EW_3" vType="car" speedFactor="1.06" vaporized=""/>
    <tripinfo id="NS_28" depart="28.00" departLane="2i_0" departPos="4.10" departSpeed="0.00" departDelay="0.00" arrival="112.00" arrivalLane="4o_0" arrivalPos="492.80" arrivalSpeed="10.26" duration="84.00" routeLength="990.53" waitingTime="1.00" waitingCount="1" stopTime="0.00" timeLoss="14.83" rerouteNo="0" devices="tripinfo_NS_28" vType="car" speedFactor="1.03" vaporized=""/>
    <tripinfo id="WE_31" depart="31.00" departLane="1i_0" departPos="4.10" departSpeed="0.00" departDelay="0.00" arrival="116.00" arrivalLane="4o_0" arrivalPos="492.80" arrivalSpeed="10.76" duration="85.00" routeLength="995.70" waitingTime="3.00" waitingCount="1" stopTime="0.00" timeLoss="17.03" rerouteNo="0" devices="tripinfo_WE_31" vType="car" speedFactor="1.05" vaporized=""/>
    <tripinfo id="SN_15" depart="15.00" departLane="3i_0" departPos="4.10" departSpeed="0.00" departDelay="0.00" arrival="125.00" arrivalLane="1o_0" arrivalPos="492.80" arrivalSpeed="8.46" duration="110.00" routeLength="995.70" waitingTime="6.00" waitingCount="1" stopTime="0.00" timeLoss="24.36" rerouteNo="0" devices="tripinfo_SN_15" vType="car" speedFactor="0.83" vaporized=""/>
    <tripinfo id="WE_45" depart="47.00" departLane="1i_0" departPos="4.10" departSpeed="0.00" departDelay="2.00" arrival="133.00" arrivalLane="2o_0" arrivalPos="492.80" arrivalSpeed="9.23" duration="86.00" routeLength="995.90" waitingTime="0.00" waitingCount="0" stopTime="0.00" timeLoss="10.36" rerouteNo="0" devices="tripinfo_WE_45" vType="car" speedFactor="0.94" vaporized=""/>
    <tripinfo id="WE_44" depart="44.00" departLane="1i_0" departPos="4.10" departSpeed="0.00" departDelay="0.00" arrival="135.00" arrivalLane="4o_0" arrivalPos="492.80" arrivalSpeed="9.27" duration="91.00" routeLength="995.70" waitingTime="0.00" waitingCount="0" stopTime="0.00" timeLoss="10.20" rerouteNo="0" devices="tripinfo_WE_44" vType="car" speedFactor="0.88" vaporized=""/>
    <tripinfo id="WE_57" depart="57.00" departLane="1i_0" departPos="4.10" departSpeed="0.00" departDelay="0.00" arrival="137.00" arrivalLane="4o_0" arrivalPos="492.80" arrivalSpeed="10.39" duration="80.00" routeLength="995.70" waitingTime="0.00" waitingCount="0" stopTime="0.00" timeLoss="10.11" rerouteNo="0" devices="tripinfo_WE_57" vType="car" speedFactor="1.02" vaporized=""/>
    <tripinfo id="NS_65" depart="65.00" departLane="2i_0" departPos="4.10" departSpeed="0.00" departDelay="0.00" arrival="155.00" arrivalLane="3o_0" arrivalPos="492.80" arrivalSpeed="9.32" duration="90.00" routeLength="995.70" waitingTime="0.00" waitingCount="0" stopTime="0.00" timeLoss="10.50" rerouteNo="0" devices="tripinfo_NS_65" vType="car" speedFactor="0.89" vaporized=""/>
    <tripinfo id="WE_87" depart="87.00" departLane="1i_0" departPos="4.10" departSpeed="0.00" departDelay="0.00" arrival="159.00" arrivalLane="4o_0" arrivalPos="492.80" arrivalSpeed="12.06" duration="72.00" routeLength="995.70" waitingTime="0.00" waitingCount="0" stopTime="0.00" timeLoss="10.10" rerouteNo="0" devices="tripinfo_WE_87" vType="car" speedFactor="1.15" vaporized=""/>
    <tripinfo id="WE_89" depart="90.00" departLane="1i_0" departPos="4.10" departSpeed="0.00" departDelay="1.00" arrival="159.00" arrivalLane="2o_0" arrivalPos="492.80" arrivalSpeed="12.40" duration="69.00" routeLength="995.90" waitingTime="0.00" waitingCount="0" stopTime="0.00" timeLoss="8.62" rerouteNo="0" devices="tripinfo_WE_89" vType="car" speedFactor="1.17" vaporized=""/>
    <tripinfo id="NS_67" depart="68.00" departLane="2i_0" departPos="4.10" departSpeed="0.00" departDelay="1.00" arrival="163.00" arrivalLane="1o_0" arrivalPos="492.80" arrivalSpeed="8.11" duration="95.00" routeLength="995.90" waitingTime="0.00" waitingCount="0" stopTime="0.00" timeLoss="8.88" rerouteNo="0" devices="tripinfo_NS_67" vType="car" speedFactor="0.83" vaporized=""/>
    <tripinfo id="NS_79" depart="79.00" departLane="2i_0" departPos="4.10" departSpeed="0.00" departDelay="0.00" arrival="165.00" arrivalLane="1o_0" arrivalPos="492.80" arrivalSpeed="9.43" duration="86.00" routeLength="995.90" waitingTime="0.00" waitingCount="0" stopTime="0.00" timeLoss="10.88" rerouteNo="0" devices="tripinfo_NS_79" vType="car" speedFactor="0.95" vaporized=""/>
    <tripinfo id="WE_108" depart="109.00" departLane="1i_0" departPos="4.10" departSpeed="0.00" departDelay="1.00" arrival="188.00" arrivalLane="3o_0" arrivalPos="492.80" arrivalSpeed="11.07" duration="79.00" routeLength="990.53" waitingTime="0.00" waitingCount="0" stopTime="0.00" timeLoss="10.37" rerouteNo="0" devices="tripinfo_WE_108" vType="car" speedFactor="1.03" vaporized=""/>
    <tripinfo id="WE_107" depart="107.00" departLane="1i_0" departPos="4.10" departSpeed="0.00" departDelay="0.00" arrival="194.00" arrivalLane="2o_0" arrivalPos="492.80" arrivalSpeed="9.86" duration="87.00" routeLength="995.90" waitingTime="0.00" waitingCount="0" stopTime="0.00" timeLoss="7.62" rerouteNo="0" devices="tripinfo_WE_107" vType="car" speedFactor="0.90" vaporized=""/>
    <tripinfo id="WE_109" depart="113.00" departLane="1i_0" departPos="4.10" departSpeed="0.00" departDelay="4.00" arrival="196.00" arrivalLane="2o_0" arrivalPos="492.80" arrivalSpeed="10.07" duration="83.00" routeLength="995.90" waitingTime="0.00" waitingCount="0" stopTime="0.00" timeLoss="8.25" rerouteNo="0" devices="tripinfo_WE_109" vType="car" speedFactor="0.96" vaporized=""/>
    <tripinfo id="WE_121" depart="121.00" departLane="1i_0" departPos="4.10" departSpeed="0.00" departDelay="0.00" arrival="198.00" arrivalLane="2o_0" arrivalPos="492.80" arrivalSpeed="10.63" duration="77.00" routeLength="995.90" waitingTime="0.00" waitingCount="0" stopTime="0.00" timeLoss="8.56" rerouteNo="0" devices="tripinfo_WE_121" vType="car" speedFactor="1.04" vaporized=""/>
    <tripinfo id="NS_123" depart="123.00" departLane="2i_0" departPos="4.10" departSpeed="0.00" departDelay="0.00" arrival="198.00" arrivalLane="3o_0" arrivalPos="492.80" arrivalSpeed="11.28" duration="75.00" routeLength="995.70" waitingTime="0.00" waitingCount="0" stopTime="0.00" timeLoss="9.87" rerouteNo="0" devices="tripinfo_NS_123" vType="car" speedFactor="1.09" vaporized=""/>
    <tripinfo id="WE_128" depart="128.00" departLane="1i_0" departPos="4.10" departSpeed="0.00" departDelay="0.00" arrival="217.00" arrivalLane="4o_0" arrivalPos="492.80" arrivalSpeed="9.29" duration="89.00" routeLength="995.70" waitingTime="0.00" waitingCount="0" stopTime="0.00" timeLoss="9.75" rerouteNo="0" devices="tripinfo_WE_128" vType="car" speedFactor="0.90" vaporized=""/>
    <tripinfo id="WE_138" depart="139.00" departLane="1i_0" departPos="4.10" departSpeed="0.00" departDelay="1.00" arrival="217.00" arrivalLane="3o_0" arrivalPos="492.80" arrivalSpeed="10.61" duration="78.00" routeLength="990.53" waitingTime="0.00" waitingCount="0" stopTime="0.00" timeLoss="8.42" rerouteNo="0" devices="tripinfo_WE_138" vType="car" speedFactor="1.02" vaporized=""/>
    <tripinfo id="WE_136" depart="136.00" departLane="1i_0" departPos="4.10" departSpeed="0.00" departDelay="0.00" arrival="218.00" arrivalLane="4o_0" arrivalPos="492.80" arrivalSpeed="12.20" duration="82.00" routeLength="995.70" waitingTime="0.00" waitingCount="0" stopTime="0.00" timeLoss="21.34" rerouteNo="0" devices="tripinfo_WE_136" vType="car" speedFactor="1.17" vaporized=""/>
    <tripinfo id="WE_143" depart="143.00" departLane="1i_0" departPos="4.10" departSpeed="0.00" departDelay="0.00" arrival="223.00" arrivalLane="2o_0" arrivalPos="492.80" arrivalSpeed="10.22" duration="80.00" routeLength="995.90" waitingTime="0.00" waitingCount="0" stopTime="0.00" timeLoss="8.46" rerouteNo="0" devices="tripinfo_WE_143" vType="car" speedFactor="1.00" vaporized=""/>
    <tripinfo id="NS_132" depart="133.00" departLane="2i_0" departPos="4.10" departSpeed="0.00" departDelay="1.00" arrival="226.00" arrivalLane="4o_0" arrivalPos="492.80" arrivalSpeed="9.18" duration="93.00" routeLength="990.53" waitingTime="0.00" waitingCount="0" stopTime="0.00" timeLoss="10.12" rerouteNo="0" devices="tripinfo_NS_132" vType="car" speedFactor="0.85" vaporized=""/>
    <tripinfo id="NS_148" depart="148.00" departLane="2i_0" departPos="4.10" departSpeed="0.00" departDelay="0.00" arrival="227.00" arrivalLane="3o_0" arrivalPos="492.80" arrivalSpeed="10.36" duration="79.00" routeLength="995.70" waitingTime="0.00" waitingCount="0" stopTime="0.00" timeLoss="9.21" rerouteNo="0" devices="tripinfo_NS_148" vType="car" speedFactor="1.02" vaporized=""/>
    <tripinfo id="NS_135" depart="136.00" departLane="2i_0" departPos="4.10" departSpeed="0.00" departDelay="1.00" arrival="228.00" arrivalLane="1o_0" arrivalPos="492.80" arrivalSpeed="8.23" duration="92.00" routeLength="995.90" waitingTime="0.00" waitingCount="0" stopTime="0.00" timeLoss="8.56" rerouteNo="0" devices="tripinfo_NS_135" vType="car" speedFactor="0.85" vaporized=""/>
    <tripinfo id="NS_149" depart="150.00" departLane="2i_0" departPos="4.10" departSpeed="0.00" departDelay="1.00" arrival="228.00" arrivalLane="4o_0" arrivalPos="492.80" arrivalSpeed="11.07" duration="78.00" routeLength="990.53" waitingTime="0.00" waitingCount="0" stopTime="0.00" timeLoss="12.33" rerouteNo="0" devices="tripinfo_NS_149" vType="car" speedFactor="1.08" vaporized=""/>
    <tripinfo id="WE_155" depart="155.00" departLane="1i_0" departPos="4.10" departSpeed="0.00" departDelay="0.00" arrival="237.00" arrivalLane="2o_0" arrivalPos="492.80" arrivalSpeed="10.65" duration="82.00" routeLength="995.90" waitingTime="0.00" waitingCount="0" stopTime="0.00" timeLoss="10.23" rerouteNo="0" devices="tripinfo_WE_155" vType="car" speedFactor="0.99" vaporized=""/>
    <tripinfo id="WE_145" depart="146.00" departLane="1i_0" departPos="4.10" departSpeed="0.00" departDelay="1.00" arrival="238.00" arrivalLane="4o_0" arrivalPos="492.80" arrivalSpeed="8.84" duration="92.00" routeLength="995.70" waitingTime="0.00" waitingCount="0" stopTime="0.00" timeLoss="13.44" rerouteNo="0" devices="tripinfo_WE_145" vType="car" speedFactor="0.90" vaporized=""/>
    <tripinfo id="WE_146" depart="149.00" departLane="1i_0" departPos="4.10" departSpeed="0.00" departDelay="3.00" arrival="240.00" arrivalLane="4o_0" arrivalPos="492.80" arrivalSpeed="12.35" duration="91.00" routeLength="995.70" waitingTime="0.00" waitingCount="0" stopTime="0.00" timeLoss="28.66" rerouteNo="0" devices="tripinfo_WE_146" vType="car" speedFactor="1.14" vaporized=""/>
    <tripinfo id="NS_157" depart="157.00" departLane="2i_0" departPos="4.10" departSpeed="0.00" departDelay="0.00" arrival="244.00" arrivalLane="4o_0" arrivalPos="492.80" arrivalSpeed="8.80" duration="87.00" routeLength="990.53" waitingTime="0.00" waitingCount="0" stopTime="0.00" timeLoss="8.71" rerouteNo="0" devices="tripinfo_NS_157" vType="car" speedFactor="0.91" vaporized=""/>
    <tripinfo id="WE_162" depart="163.00" departLane="1i_0" departPos="4.10" departSpeed="0.00" departDelay="1.00" arrival="248.00" arrivalLane="3o_0" arrivalPos="492.80" arrivalSpeed="9.60" duration="85.00" routeLength="990.53" waitingTime="0.00" waitingCount="0" stopTime="0.00" timeLoss="8.05" rerouteNo="0" devices="tripinfo_WE_162" vType="car" speedFactor="0.91" vaporized=""/>
    <tripinfo id="WE_169" depart="169.00" departLane="1i_0" departPos="4.10" departSpeed="0.00" departDelay="0.00" arrival="251.00" arrivalLane="3o_0" arrivalPos="492.80" arrivalSpeed="10.51" duration="82.00" routeLength="990.53" waitingTime="0.00" waitingCount="0" stopTime="0.00" timeLoss="8.85" rerouteNo="0" devices="tripinfo_WE_169" vType="car" speedFactor="0.97" vaporized=""/>
    <tripinfo id="NS_168" depart="168.00" departLane="2i_0" departPos="4.10" departSpeed="0.00" departDelay="0.00" arrival="275.00" arrivalLane="3o_0" arrivalPos="492.80" arrivalSpeed="10.78" duration="107.00" routeLength="995.70" waitingTime="25.00" waitingCount="1" stopTime="0.00" timeLoss="37.14" rerouteNo="0" devices="tripinfo_NS_168" vType="car" speedFactor="1.02" vaporized=""/>
    <tripinfo id="NS_169" depart="170.00" departLane="2i_0" departPos="4.10" departSpeed="0.00" departDelay="1.00" arrival="280.00" arrivalLane="1o_0" arrivalPos="492.80" arrivalSpeed="10.22" duration="110.00" routeLength="995.90" waitingTime="21.00" waitingCount="1" stopTime="0.00" timeLoss="34.66" rerouteNo="0" devices="tripinfo_NS_169" vType="car" speedFactor="0.94" vaporized=""/>
    <tripinfo id="NS_174" depart="174.00" departLane="2i_0" departPos="4.10" departSpeed="0.00" departDelay="0.00" arrival="282.00" arrivalLane="1o_0" arrivalPos="492.80" arrivalSpeed="10.45" duration="108.00" routeLength="995.90" waitingTime="20.00" waitingCount="1" stopTime="0.00" timeLoss="40.62" rerouteNo="0" devices="tripinfo_NS_174" vType="car" speedFactor="1.06" vaporized=""/>
    <tripinfo id="NS_175" depart="176.00" departLane="2i_0" departPos="4.10" departSpeed="0.00" departDelay="1.00" arrival="284.00" arrivalLane="1o_0" arrivalPos="492.80" arrivalSpeed="10.36" duration="108.00" routeLength="995.90" waitingTime="17.00" waitingCount="1" stopTime="0.00" timeLoss="33.62" rerouteNo="0" devices="tripinfo_NS_175" vType="car" speedFactor="0.96" vaporized=""/>
    <tripinfo id="NS_182" depart="182.00" departLane="2i_0" departPos="10.10" departSpeed="0.00" departDelay="0.00" arrival="284.00" arrivalLane="4o_0" arrivalPos="492.80" arrivalSpeed="10.76" duration="102.00" routeLength="984.53" waitingTime="9.00" waitingCount="1" stopTime="0.00" timeLoss="31.25" rerouteNo="0" devices="tripinfo_NS_182" vType="truck" speedFactor="0.99" vaporized=""/>
    <tripinfo id="NS_189" depart="189.00" departLane="2i_0" departPos="4.10" departSpeed="0.00" departDelay="0.00" arrival="284.00" arrivalLane="3o_0" arrivalPos="492.80" arrivalSpeed="11.06" duration="95.00" routeLength="995.70" waitingTime="8.00" waitingCount="1" stopTime="0.00" timeLoss="29.98" rerouteNo="0" devices="tripinfo_NS_189" vType="car" speedFactor="1.09" vaporized=""/>
    <tripinfo id="NS_199" depart="201.00" departLane="2i_0" departPos="4.10" departSpeed="0.00" departDelay="2.00" arrival="286.00" arrivalLane="1o_0" arrivalPos="492.80" arrivalSpeed="11.87" duration="85.00" routeLength="995.90" waitingTime="0.00" waitingCount="0" stopTime="0.00" timeLoss="22.88" rerouteNo="0" devices="tripinfo_NS_199" vType="car" speedFactor="1.15" vaporized=""/>
    <tripinfo id="NS_195" depart="198.00" departLane="2i_0" departPos="4.10" departSpeed="0.00" departDelay="3.00" arrival="289.00" arrivalLane="4o_0" arrivalPos="492.80" arrivalSpeed="10.54" duration="91.00" routeLength="990.53" waitingTime="2.00" waitingCount="1" stopTime="0.00" timeLoss="21.42" rerouteNo="0" devices="tripinfo_NS_195" vType="car" speedFactor="1.02" vaporized=""/>
    <tripinfo id="NS_213" depart="213.00" departLane="2i_0" departPos="4.10" departSpeed="0.00" departDelay="0.00" arrival="292.00" arrivalLane="1o_0" arrivalPos="492.80" arrivalSpeed="11.32" duration="79.00" routeLength="995.90" waitingTime="0.00" waitingCount="0" stopTime="0.00" timeLoss="9.67" rerouteNo="0" devices="tripinfo_NS_213" vType="car" speedFactor="1.02" vaporized=""/>
    <tripinfo id="WE_179" depart="179.00" departLane="1i_0" departPos="4.10" departSpeed="0.00" departDelay="0.00" arrival="298.00" arrivalLane="4o_0" arrivalPos="492.80" arrivalSpeed="10.71" duration="119.00" routeLength="995.70" waitingTime="35.00" waitingCount="1" stopTime="0.00" timeLoss="46.89" rerouteNo="0" devices="tripinfo_WE_179" vType="car" speedFactor="0.98" vaporized=""/>
    <tripinfo id="WE_188" depart="188.00" departLane="1i_0" departPos="4.10" departSpeed="0.00" departDelay="0.00" arrival="298.00" arrivalLane="3o_0" arrivalPos="492.80" arrivalSpeed="9.92" duration="110.00" routeLength="990.53" waitingTime="26.00" waitingCount="1" stopTime="0.00" timeLoss="40.06" rerouteNo="0" devices="tripinfo_WE_188" vType="car" speedFactor="1.01" vaporized=""/>
    <tripinfo id="WE_194" depart="194.00" departLane="1i_0" departPos="4.10" departSpeed="0.00" departDelay="0.00" arrival="300.00" arrivalLane="3o_0" arrivalPos="492.80" arrivalSpeed="10.54" duration="106.00" routeLength="990.53" waitingTime="21.00" waitingCount="1" stopTime="0.00" timeLoss="37.57" rerouteNo="0" devices="tripinfo_WE_194" vType="car" speedFactor="1.03" vaporized=""/>
    <tripinfo id="WE_214" depart="214.00" departLane="1i_0" departPos="4.10" departSpeed="0.00" departDelay="0.00" arrival="310.00" arrivalLane="3o_0" arrivalPos="492.80" arrivalSpeed="11.20" duration="96.00" routeLength="990.53" waitingTime="3.00" waitingCount="1" stopTime="0.00" timeLoss="26.32" rerouteNo="0" devices="tripinfo_WE_214" vType="car" speedFactor="1.02" vaporized=""/>
    <tripinfo id="WE_200" depart="200.00" departLane="1i_0" departPos="4.10" departSpeed="0.00" departDelay="0.00" arrival="311.00" arrivalLane="4o_0" arrivalPos="492.80" arrivalSpeed="10.36" duration="111.00" routeLength="995.70" waitingTime="17.00" waitingCount="2" stopTime="0.00" timeLoss="37.98" rerouteNo="0" devices="tripinfo_WE_200" vType="car" speedFactor="0.98" vaporized=""/>
    <tripinfo id="NS_219" depart="219.00" departLane="2i_0" departPos="4.10" departSpeed="0.00" departDelay="0.00" arrival="313.00" arrivalLane="1o_0" arrivalPos="492.80" arrivalSpeed="8.68" duration="94.00" routeLength="995.90" waitingTime="0.00" waitingCount="0" stopTime="0.00" timeLoss="8.41" rerouteNo="0" devices="tripinfo_NS_219" vType="car" speedFactor="0.83" vaporized=""/>
    <tripinfo id="NS_224" depart="224.00" departLane="2i_0" departPos="4.10" departSpeed="0.00" departDelay="0.00" arrival="314.00" arrivalLane="1o_0" arrivalPos="492.80" arrivalSpeed="11.29" duration="90.00" routeLength="995.90" waitingTime="0.00" waitingCount="0" stopTime="0.00" timeLoss="25.03" rerouteNo="0" devices="tripinfo_NS_224" vType="car" speedFactor="1.09" vaporized=""/>
    <tripinfo id="WE_226" depart="228.00" departLane="1i_0" departPos="4.10" departSpeed="0.00" departDelay="2.00" arrival="314.00" arrivalLane="3o_0" arrivalPos="492.80" arrivalSpeed="9.98" duration="86.00" routeLength="990.53" waitingTime="0.00" waitingCount="0" stopTime="0.00" timeLoss="16.57" rerouteNo="0" devices="tripinfo_WE_226" vType="car" speedFactor="1.01" vaporized=""/>
    <tripinfo id="NS_225" depart="227.00" departLane="2i_0" departPos="4.10" departSpeed="0.00" departDelay="2.00" arrival="316.00" arrivalLane="1o_0" arrivalPos="492.80" arrivalSpeed="11.65" duration="89.00" routeLength="995.90" waitingTime="0.00" waitingCount="0" stopTime="0.00" timeLoss="21.60" rerouteNo="0" devices="tripinfo_NS_225" vType="car" speedFactor="1.06" vaporized=""/>
    <tripinfo id="WE_221" depart="221.00" departLane="1i_0" departPos="4.10" departSpeed="0.00" departDelay="0.00" arrival="318.00" arrivalLane="2o_0" arrivalPos="492.80" arrivalSpeed="10.05" duration="97.00" routeLength="995.90" waitingTime="0.00" waitingCount="0" stopTime="0.00" timeLoss="19.46" rerouteNo="0" devices="tripinfo_WE_221" vType="car" speedFactor="0.92" vaporized=""/>
    <tripinfo id="NS_237" depart="237.00" departLane="2i_0" departPos="4.10" departSpeed="0.00" departDelay="0.00" arrival="324.00" arrivalLane="3o_0" arrivalPos="492.80" arrivalSpeed="10.01" duration="87.00" routeLength="995.70" waitingTime="2.00" waitingCount="1" stopTime="0.00" timeLoss="13.61" rerouteNo="0" devices="tripinfo_NS_237" vType="car" speedFactor="0.97" vaporized=""/>
    <tripinfo id="NS_242" depart="242.00" departLane="2i_0" departPos="4.10" departSpeed="0.00" departDelay="0.00" arrival="331.00" arrivalLane="3o_0" arrivalPos="492.80" arrivalSpeed="9.48" duration="89.00" routeLength="995.70" waitingTime="0.00" waitingCount="0" stopTime="0.00" timeLoss="9.65" rerouteNo="0" devices="tripinfo_NS_242" vType="car" speedFactor="0.89" vaporized=""/>
    <tripinfo id="WE_227" depart="231.00" departLane="1i_0" departPos="4.10" departSpeed="0.00" departDelay="4.00" arrival="333.00" arrivalLane="4o_0" arrivalPos="492.80" arrivalSpeed="9.07" duration="102.00" routeLength="995.70" waitingTime="6.00" waitingCount="1" stopTime="0.00" timeLoss="23.44" rerouteNo="0" devices="tripinfo_WE_227" vType="car" speedFactor="0.91" vaporized=""/>
    <tripinfo id="WE_235" depart="235.00" departLane="1i_0" departPos="4.10" departSpeed="0.00" departDelay="0.00" arrival="333.00" arrivalLane="3o_0" arrivalPos="492.80" arrivalSpeed="10.93" duration="98.00" routeLength="990.53" waitingTime="5.00" waitingCount="1" stopTime="0.00" timeLoss="31.47" rerouteNo="0" devices="tripinfo_WE_235" vType="car" speedFactor="1.06" vaporized=""/>
    <tripinfo id="WE_244" depart="244.00" departLane="1i_0" departPos="4.10" departSpeed="0.00" departDelay="0.00" arrival="334.00" arrivalLane="4o_0" arrivalPos="492.80" arrivalSpeed="11.19" duration="90.00" routeLength="995.70" waitingTime="3.00" waitingCount="1" stopTime="0.00" timeLoss="20.31" rerouteNo="0" devices="tripinfo_WE_244" vType="car" speedFactor="1.01" vaporized=""/>
    <tripinfo id="WE_236" depart="238.00" departLane="1i_0" departPos="4.10" departSpeed="0.00" departDelay="2.00" arrival="335.00" arrivalLane="3o_0" arrivalPos="492.80" arrivalSpeed="10.59" duration="97.00" routeLength="990.53" waitingTime="5.00" waitingCount="1" stopTime="0.00" timeLoss="22.95" rerouteNo="0" devices="tripinfo_WE_236" vType="car" speedFactor="0.96" vaporized=""/>
    <tripinfo id="WE_262" depart="262.00" departLane="1i_0" departPos="4.10" departSpeed="0.00" departDelay="0.00" arrival="347.00" arrivalLane="4o_0" arrivalPos="492.80" arrivalSpeed="9.58" duration="85.00" routeLength="995.70" waitingTime="0.00" waitingCount="0" stopTime="0.00" timeLoss="10.80" rerouteNo="0" devices="tripinfo_WE_262" vType="car" speedFactor="0.96" vaporized=""/>
    <tripinfo id="NS_298" depart="298.00" departLane="2i_0" departPos="4.10" departSpeed="0.00" departDelay="0.00" arrival="375.00" arrivalLane="1o_0" arrivalPos="492.80" arrivalSpeed="10.35" duration="77.00" routeLength="995.90" waitingTime="0.00" waitingCount="0" stopTime="0.00" timeLoss="8.11" rerouteNo="0" devices="tripinfo_NS_298" vType="car" speedFactor="1.03" vaporized=""/>
    <tripinfo id="NS_295" depart="295.00" departLane="2i_0" departPos="4.10" departSpeed="0.00" departDelay="0.00" arrival="378.00" arrivalLane="4o_0" arrivalPos="492.80" arrivalSpeed="10.23" duration="83.00" routeLength="990.53" waitingTime="0.00" waitingCount="0" stopTime="0.00" timeLoss="7.96" rerouteNo="0" devices="tripinfo_NS_295" vType="car" speedFactor="0.94" vaporized=""/>
    <tripinfo id="NS_301" depart="301.00" departLane="2i_0" departPos="4.10" departSpeed="0.00" departDelay="0.00" arrival="380.00" arrivalLane="4o_0" arrivalPos="492.80" arrivalSpeed="10.11" duration="79.00" routeLength="990.53" waitingTime="0.00" waitingCount="0" stopTime="0.00" timeLoss="9.85" rerouteNo="0" devices="tripinfo_NS_301" vType="car" speedFactor="1.02" vaporized=""/>
    <tripinfo id="NS_327" depart="327.00" departLane="2i_0" departPos="4.10" departSpeed="0.00" departDelay="0.00" arrival="404.00" arrivalLane="4o_0" arrivalPos="492.80" arrivalSpeed="10.73" duration="77.00" routeLength="990.53" waitingTime="0.00" waitingCount="0" stopTime="0.00" timeLoss="8.36" rerouteNo="0" devices="tripinfo_NS_327" vType="car" speedFactor="1.03" vaporized=""/>
    <tripinfo id="NS_336" depart="336.00" departLane="2i_0" departPos="4.10" departSpeed="0.00" departDelay="0.00" arrival="411.00" arrivalLane="4o_0" arrivalPos="492.80" arrivalSpeed="10.70" duration="75.00" routeLength="990.53" waitingTime="0.00" waitingCount="0" stopTime="0.00" timeLoss="6.84" rerouteNo="0" devices="tripinfo_NS_336" vType="car" speedFactor="1.04" vaporized=""/>
    <tripinfo id="EW_13" depart="13.00" departLane="4i_0" departPos="4.10" departSpeed="0.00" departDelay="0.00" arrival="412.00" arrivalLane="2o_0" arrivalPos="492.80" arrivalSpeed="10.83" duration="399.00" routeLength="981.50" waitingTime="317.00" waitingCount="3" stopTime="0.00" timeLoss="331.16" rerouteNo="0" devices="tripinfo_EW_13" vType="car" speedFactor="1.03" vaporized=""/>
    <tripinfo id="NS_337" depart="338.00" departLane="2i_0" departPos="4.10" departSpeed="0.00" departDelay="1.00" arrival="413.00" arrivalLane="4o_0" arrivalPos="492.80" arrivalSpeed="13.12" duration="75.00" routeLength="990.53" waitingTime="0.00" waitingCount="0" stopTime="0.00" timeLoss="16.90" rerouteNo="0" devices="tripinfo_NS_337" vType="car" speedFactor="1.23" vaporized=""/>
    <tripinfo id="NS_319" depart="319.00" departLane="2i_0" departPos="4.10" departSpeed="0.00" departDelay="0.00" arrival="415.00" arrivalLane="1o_0" arrivalPos="492.80" arrivalSpeed="8.96" duration="96.00" routeLength="995.90" waitingTime="0.00" waitingCount="0" stopTime="0.00" timeLoss="10.01" rerouteNo="0" devices="tripinfo_NS_319" vType="car" speedFactor="0.82" vaporized=""/>
    <tripinfo id="NS_340" depart="341.00" departLane="2i_0" departPos="4.10" departSpeed="0.00" departDelay="1.00" arrival="422.00" arrivalLane="3o_0" arrivalPos="492.80" arrivalSpeed="10.83" duration="81.00" routeLength="995.70" waitingTime="0.00" waitingCount="0" stopTime="0.00" timeLoss="10.70" rerouteNo="0" devices="tripinfo_NS_340" vType="car" speedFactor="1.01" vaporized=""/>
    <tripinfo id="SN_40" depart="40.00" departLane="3i_0" departPos="4.10" departSpeed="0.00" departDelay="0.00" arrival="425.00" arrivalLane="2o_0" arrivalPos="492.80" arrivalSpeed="10.14" duration="385.00" routeLength="990.53" waitingTime="300.00" waitingCount="1" stopTime="0.00" timeLoss="313.79" rerouteNo="0" devices="tripinfo_SN_40" vType="car" speedFactor="0.99" vaporized=""/>
    <tripinfo id="WE_292" depart="292.00" departLane="1i_0" departPos="4.10" departSpeed="0.00" departDelay="0.00" arrival="425.00" arrivalLane="4o_0" arrivalPos="492.80" arrivalSpeed="10.90" duration="133.00" routeLength="995.70" waitingTime="47.00" waitingCount="1" stopTime="0.00" timeLoss="61.62" rerouteNo="0" devices="tripinfo_WE_292" vType="car" speedFactor="0.99" vaporized=""/>
    <tripinfo id="SN_56" depart="56.00" departLane="3i_0" departPos="4.10" departSpeed="0.00" departDelay="0.00" arrival="427.00" arrivalLane="4o_0" arrivalPos="492.80" arrivalSpeed="11.92" duration="371.00" routeLength="995.90" waitingTime="290.00" waitingCount="2" stopTime="0.00" timeLoss="309.59" rerouteNo="0" devices="tripinfo_SN_56" vType="car" speedFactor="1.16" vaporized=""/>
    <tripinfo id="EW_20" depart="20.00" departLane="4i_0" departPos="4.10" departSpeed="0.00" departDelay="0.00" arrival="432.00" arrivalLane="3o_0" arrivalPos="492.80" arrivalSpeed="10.01" duration="412.00" routeLength="995.90" waitingTime="307.00" waitingCount="5" stopTime="0.00" timeLoss="336.21" rerouteNo="0" devices="tripinfo_EW_20" vType="car" speedFactor="0.94" vaporized=""/>