<?xml version="1.0" encoding="UTF-8"?>

<!-- generated on 2024-05-05 21:56:39 by Eclipse SUMO sumo Version 1.19.0
<configuration xmlns:xsi="http://www.w3.org/2001/XMLSchema-instance" xsi:noNamespaceSchemaLocation="http://sumo.dlr.de/xsd/sumoConfiguration.xsd">

    <input>
        <net-file value="twoone.net.xml"/>
        <route-files value="route_gen.rou.xml"/>
    </input>

    <output>
        <tripinfo-output value="tripinfo_epi154.xml"/>
    </output>

    <report>
        <no-warnings value="true"/>
    </report>

    <traci_server>
        <remote-port value="35115"/>
    </traci_server>

</configuration>
-->

<tripinfos xmlns:xsi="http://www.w3.org/2001/XMLSchema-instance" xsi:noNamespaceSchemaLocation="http://sumo.dlr.de/xsd/tripinfo_file.xsd">
    <tripinfo id="WE_0" depart="0.00" departLane="1i_0" departPos="4.10" departSpeed="0.00" departDelay="0.00" arrival="74.00" arrivalLane="2o_0" arrivalPos="492.80" arrivalSpeed="11.37" duration="74.00" routeLength="995.90" waitingTime="0.00" waitingCount="0" stopTime="0.00" timeLoss="7.06" rerouteNo="0" devices="tripinfo_WE_0" vType="car" speedFactor="1.06" vaporized=""/>
    <tripinfo id="WE_4" depart="4.00" departLane="1i_0" departPos="4.10" departSpeed="0.00" departDelay="0.00" arrival="90.00" arrivalLane="4o_0" arrivalPos="492.80" arrivalSpeed="9.18" duration="86.00" routeLength="995.70" waitingTime="0.00" waitingCount="0" stopTime="0.00" timeLoss="10.00" rerouteNo="0" devices="tripinfo_WE_4" vType="car" speedFactor="0.94" vaporized=""/>
    <tripinfo id="SN_7" depart="7.00" departLane="3i_0" departPos="4.10" departSpeed="0.00" departDelay="0.00" arrival="90.00" arrivalLane="2o_0" arrivalPos="492.80" arrivalSpeed="11.07" duration="83.00" routeLength="990.53" waitingTime="2.00" waitingCount="1" stopTime="0.00" timeLoss="12.61" rerouteNo="0" devices="tripinfo_SN_7" vType="car" speedFactor="1.01" vaporized=""/>
    <tripinfo id="SN_11" depart="11.00" departLane="3i_0" departPos="4.10" departSpeed="0.00" departDelay="0.00" arrival="95.00" arrivalLane="1o_0" arrivalPos="492.80" arrivalSpeed="11.65" duration="84.00" routeLength="995.70" waitingTime="1.00" waitingCount="1" stopTime="0.00" timeLoss="17.97" rerouteNo="0" devices="tripinfo_SN_11" vType="car" speedFactor="1.08" vaporized=""/>
    <tripinfo id="NS_27" depart="27.00" departLane="2i_0" departPos="4.10" departSpeed="0.00" departDelay="0.00" arrival="100.00" arrivalLane="4o_0" arrivalPos="492.80" arrivalSpeed="11.50" duration="73.00" routeLength="990.53" waitingTime="0.00" waitingCount="0" stopTime="0.00" timeLoss="7.91" rerouteNo="0" devices="tripinfo_NS_27" vType="car" speedFactor="1.09" vaporized=""/>
    <tripinfo id="WE_29" depart="29.00" departLane="1i_0" departPos="4.10" departSpeed="0.00" departDelay="0.00" arrival="104.00" arrivalLane="2o_0" arrivalPos="492.80" arrivalSpeed="11.01" duration="75.00" routeLength="995.90" waitingTime="0.00" waitingCount="0" stopTime="0.00" timeLoss="7.41" rerouteNo="0" devices="tripinfo_WE_29" vType="car" speedFactor="1.05" vaporized=""/>
    <tripinfo id="NS_28" depart="30.00" departLane="2i_0" departPos="4.10" departSpeed="0.00" departDelay="2.00" arrival="108.00" arrivalLane="3o_0" arrivalPos="492.80" arrivalSpeed="10.61" duration="78.00" routeLength="995.70" waitingTime="0.00" waitingCount="0" stopTime="0.00" timeLoss="9.16" rerouteNo="0" devices="tripinfo_NS_28" vType="car" speedFactor="1.03" vaporized=""/>
    <tripinfo id="EW_16" depart="16.00" departLane="4i_0" departPos="4.10" departSpeed="0.00" departDelay="0.00" arrival="111.00" arrivalLane="3o_0" arrivalPos="492.80" arrivalSpeed="10.50" duration="95.00" routeLength="995.90" waitingTime="15.00" waitingCount="1" stopTime="0.00" timeLoss="26.93" rerouteNo="0" devices="tripinfo_EW_16" vType="car" speedFactor="1.05" vaporized=""/>
    <tripinfo id="SN_14" depart="14.00" departLane="3i_0" departPos="4.10" departSpeed="0.00" departDelay="0.00" arrival="112.00" arrivalLane="4o_0" arrivalPos="492.80" arrivalSpeed="10.56" duration="98.00" routeLength="995.90" waitingTime="11.00" waitingCount="1" stopTime="0.00" timeLoss="29.14" rerouteNo="0" devices="tripinfo_SN_14" vType="car" speedFactor="1.03" vaporized=""/>
    <tripinfo id="WE_39" depart="39.00" departLane="1i_0" departPos="4.10" departSpeed="0.00" departDelay="0.00" arrival="114.00" arrivalLane="4o_0" arrivalPos="492.80" arrivalSpeed="12.18" duration="75.00" routeLength="995.70" waitingTime="0.00" waitingCount="0" stopTime="0.00" timeLoss="11.52" rerouteNo="0" devices="tripinfo_WE_39" vType="car" speedFactor="1.12" vaporized=""/>
    <tripinfo id="WE_43" depart="43.00" departLane="1i_0" departPos="4.10" departSpeed="0.00" departDelay="0.00" arrival="123.00" arrivalLane="2o_0" arrivalPos="492.80" arrivalSpeed="10.43" duration="80.00" routeLength="995.90" waitingTime="0.00" waitingCount="0" stopTime="0.00" timeLoss="7.81" rerouteNo="0" devices="tripinfo_WE_43" vType="car" speedFactor="0.99" vaporized=""/>
    <tripinfo id="WE_55" depart="55.00" departLane="1i_0" departPos="4.10" departSpeed="0.00" departDelay="0.00" arrival="125.00" arrivalLane="2o_0" arrivalPos="492.80" arrivalSpeed="12.65" duration="70.00" routeLength="995.90" waitingTime="0.00" waitingCount="0" stopTime="0.00" timeLoss="7.98" rerouteNo="0" devices="tripinfo_WE_55" vType="car" speedFactor="1.16" vaporized=""/>
    <tripinfo id="SN_15" depart="18.00" departLane="3i_0" departPos="10.10" departSpeed="0.00" departDelay="3.00" arrival="133.00" arrivalLane="4o_0" arrivalPos="492.80" arrivalSpeed="9.98" duration="115.00" routeLength="989.90" waitingTime="13.00" waitingCount="2" stopTime="0.00" timeLoss="37.63" rerouteNo="0" devices="tripinfo_SN_15" vType="truck" speedFactor="0.92" vaporized=""/>
    <tripinfo id="EW_20" depart="20.00" departLane="4i_0" departPos="4.10" departSpeed="0.00" departDelay="0.00" arrival="133.00" arrivalLane="3o_0" arrivalPos="492.80" arrivalSpeed="9.78" duration="113.00" routeLength="995.90" waitingTime="17.00" waitingCount="2" stopTime="0.00" timeLoss="33.06" rerouteNo="0" devices="tripinfo_EW_20" vType="car" speedFactor="0.89" vaporized=""/>
    <tripinfo id="NS_49" depart="49.00" departLane="2i_0" departPos="4.10" departSpeed="0.00" departDelay="0.00" arrival="138.00" arrivalLane="3o_0" arrivalPos="492.80" arrivalSpeed="9.70" duration="89.00" routeLength="995.70" waitingTime="0.00" waitingCount="0" stopTime="0.00" timeLoss="12.56" rerouteNo="0" devices="tripinfo_NS_49" vType="car" speedFactor="0.93" vaporized=""/>
    <tripinfo id="NS_51" depart="52.00" departLane="2i_0" departPos="4.10" departSpeed="0.00" departDelay="1.00" arrival="142.00" arrivalLane="4o_0" arrivalPos="492.80" arrivalSpeed="9.62" duration="90.00" routeLength="990.53" waitingTime="0.00" waitingCount="0" stopTime="0.00" timeLoss="9.86" rerouteNo="0" devices="tripinfo_NS_51" vType="car" speedFactor="0.88" vaporized=""/>
    <tripinfo id="SN_25" depart="25.00" departLane="3i_0" departPos="4.10" departSpeed="0.00" departDelay="0.00" arrival="144.00" arrivalLane="4o_0" arrivalPos="492.80" arrivalSpeed="10.01" duration="119.00" routeLength="995.90" waitingTime="13.00" waitingCount="3" stopTime="0.00" timeLoss="43.45" rerouteNo="0" devices="tripinfo_SN_25" vType="car" speedFactor="0.94" vaporized=""/>
    <tripinfo id="EW_27" depart="27.00" departLane="4i_0" departPos="4.10" departSpeed="0.00" departDelay="0.00" arrival="146.00" arrivalLane="1o_0" arrivalPos="492.80" arrivalSpeed="9.30" duration="119.00" routeLength="990.53" waitingTime="16.00" waitingCount="3" stopTime="0.00" timeLoss="36.78" rerouteNo="0" devices="tripinfo_EW_27" vType="car" speedFactor="0.86" vaporized=""/>
    <tripinfo id="SN_52" depart="52.00" departLane="3i_0" departPos="4.10" departSpeed="0.00" departDelay="0.00" arrival="147.00" arrivalLane="2o_0" arrivalPos="492.80" arrivalSpeed="9.26" duration="95.00" routeLength="990.53" waitingTime="3.00" waitingCount="2" stopTime="0.00" timeLoss="19.97" rerouteNo="0" devices="tripinfo_SN_52" vType="car" speedFactor="0.94" vaporized=""/>
    <tripinfo id="EW_54" depart="54.00" departLane="4i_0" departPos="4.10" departSpeed="0.00" departDelay="0.00" arrival="148.00" arrivalLane="3o_0" arrivalPos="492.80" arrivalSpeed="10.36" duration="94.00" routeLength="995.90" waitingTime="0.00" waitingCount="0" stopTime="0.00" timeLoss="17.87" rerouteNo="0" devices="tripinfo_EW_54" vType="car" speedFactor="0.94" vaporized=""/>
    <tripinfo id="EW_56" depart="57.00" departLane="4i_0" departPos="4.10" departSpeed="0.00" departDelay="1.00" arrival="148.00" arrivalLane="1o_0" arrivalPos="492.80" arrivalSpeed="10.60" duration="91.00" routeLength="990.53" waitingTime="0.00" waitingCount="0" stopTime="0.00" timeLoss="21.56" rerouteNo="0" devices="tripinfo_EW_56" vType="car" speedFactor="1.02" vaporized=""/>
    <tripinfo id="SN_58" depart="58.00" departLane="3i_0" departPos="4.10" departSpeed="0.00" departDelay="0.00" arrival="149.00" arrivalLane="2o_0" arrivalPos="492.80" arrivalSpeed="10.41" duration="91.00" routeLength="990.53" waitingTime="2.00" waitingCount="2" stopTime="0.00" timeLoss="20.78" rerouteNo="0" devices="tripinfo_SN_58" vType="car" speedFactor="1.01" vaporized=""/>
    <tripinfo id="NS_69" depart="69.00" departLane="2i_0" departPos="4.10" departSpeed="0.00" departDelay="0.00" arrival="157.00" arrivalLane="1o_0" arrivalPos="492.80" arrivalSpeed="9.07" duration="88.00" routeLength="995.90" waitingTime="0.00" waitingCount="0" stopTime="0.00" timeLoss="8.14" rerouteNo="0" devices="tripinfo_NS_69" vType="car" speedFactor="0.89" vaporized=""/>
    <tripinfo id="NS_92" depart="92.00" departLane="2i_0" departPos="4.10" departSpeed="0.00" departDelay="0.00" arrival="164.00" arrivalLane="3o_0" arrivalPos="492.80" arrivalSpeed="11.53" duration="72.00" routeLength="995.70" waitingTime="0.00" waitingCount="0" stopTime="0.00" timeLoss="10.30" rerouteNo="0" devices="tripinfo_NS_92" vType="car" speedFactor="1.15" vaporized=""/>
    <tripinfo id="NS_74" depart="74.00" departLane="2i_0" departPos="4.10" departSpeed="0.00" departDelay="0.00" arrival="165.00" arrivalLane="1o_0" arrivalPos="492.80" arrivalSpeed="8.84" duration="91.00" routeLength="995.90" waitingTime="0.00" waitingCount="0" stopTime="0.00" timeLoss="9.70" rerouteNo="0" devices="tripinfo_NS_74" vType="car" speedFactor="0.87" vaporized=""/>
    <tripinfo id="NS_72" depart="72.00" departLane="2i_0" departPos="4.10" departSpeed="0.00" departDelay="0.00" arrival="166.00" arrivalLane="4o_0" arrivalPos="492.80" arrivalSpeed="8.60" duration="94.00" routeLength="990.53" waitingTime="0.00" waitingCount="0" stopTime="0.00" timeLoss="7.96" rerouteNo="0" devices="tripinfo_NS_72" vType="car" speedFactor="0.83" vaporized=""/>
    <tripinfo id="NS_80" depart="80.00" departLane="2i_0" departPos="4.10" departSpeed="0.00" departDelay="0.00" arrival="167.00" arrivalLane="4o_0" arrivalPos="492.80" arrivalSpeed="11.25" duration="87.00" routeLength="990.53" waitingTime="0.00" waitingCount="0" stopTime="0.00" timeLoss="24.53" rerouteNo="0" devices="tripinfo_NS_80" vType="car" speedFactor="1.13" vaporized=""/>
    <tripinfo id="WE_76" depart="76.00" departLane="1i_0" departPos="4.10" departSpeed="0.00" departDelay="0.00" arrival="169.00" arrivalLane="4o_0" arrivalPos="492.80" arrivalSpeed="8.91" duration="93.00" routeLength="995.70" waitingTime="0.00" waitingCount="0" stopTime="0.00" timeLoss="15.91" rerouteNo="0" devices="tripinfo_WE_76" vType="car" speedFactor="0.92" vaporized=""/>
    <tripinfo id="WE_91" depart="91.00" departLane="1i_0" departPos="4.10" departSpeed="0.00" departDelay="0.00" arrival="177.00" arrivalLane="4o_0" arrivalPos="492.80" arrivalSpeed="9.31" duration="86.00" routeLength="995.70" waitingTime="0.00" waitingCount="0" stopTime="0.00" timeLoss="10.12" rerouteNo="0" devices="tripinfo_WE_91" vType="car" speedFactor="0.93" vaporized=""/>
    <tripinfo id="NS_101" depart="101.00" departLane="2i_0" departPos="4.10" departSpeed="0.00" departDelay="0.00" arrival="180.00" arrivalLane="3o_0" arrivalPos="492.80" arrivalSpeed="10.60" duration="79.00" routeLength="995.70" waitingTime="0.00" waitingCount="0" stopTime="0.00" timeLoss="9.62" rerouteNo="0" devices="tripinfo_NS_101" vType="car" speedFactor="1.02" vaporized=""/>
    <tripinfo id="NS_111" depart="111.00" departLane="2i_0" departPos="4.10" departSpeed="0.00" departDelay="0.00" arrival="193.00" arrivalLane="3o_0" arrivalPos="492.80" arrivalSpeed="9.70" duration="82.00" routeLength="995.70" waitingTime="0.00" waitingCount="0" stopTime="0.00" timeLoss="9.40" rerouteNo="0" devices="tripinfo_NS_111" vType="car" speedFactor="0.97" vaporized=""/>
    <tripinfo id="WE_128" depart="128.00" departLane="1i_0" departPos="4.10" departSpeed="0.00" departDelay="0.00" arrival="203.00" arrivalLane="4o_0" arrivalPos="492.80" arrivalSpeed="11.72" duration="75.00" routeLength="995.70" waitingTime="0.00" waitingCount="0" stopTime="0.00" timeLoss="9.54" rerouteNo="0" devices="tripinfo_WE_128" vType="car" speedFactor="1.09" vaporized=""/>
    <tripinfo id="NS_142" depart="142.00" departLane="2i_0" departPos="4.10" departSpeed="0.00" departDelay="0.00" arrival="231.00" arrivalLane="3o_0" arrivalPos="492.80" arrivalSpeed="9.27" duration="89.00" routeLength="995.70" waitingTime="0.00" waitingCount="0" stopTime="0.00" timeLoss="10.37" rerouteNo="0" devices="tripinfo_NS_142" vType="car" speedFactor="0.90" vaporized=""/>
    <tripinfo id="WE_147" depart="148.00" departLane="1i_0" departPos="10.10" departSpeed="0.00" departDelay="1.00" arrival="232.00" arrivalLane="4o_0" arrivalPos="492.80" arrivalSpeed="11.74" duration="84.00" routeLength="989.70" waitingTime="0.00" waitingCount="0" stopTime="0.00" timeLoss="17.43" rerouteNo="0" devices="tripinfo_WE_147" vType="truck" speedFactor="1.08" vaporized=""/>
    <tripinfo id="WE_159" depart="159.00" departLane="1i_0" departPos="4.10" departSpeed="0.00" departDelay="0.00" arrival="238.00" arrivalLane="2o_0" arrivalPos="492.80" arrivalSpeed="10.72" duration="79.00" routeLength="995.90" waitingTime="0.00" waitingCount="0" stopTime="0.00" timeLoss="8.57" rerouteNo="0" devices="tripinfo_WE_159" vType="car" speedFactor="1.02" vaporized=""/>
    <tripinfo id="NS_163" depart="163.00" departLane="2i_0" departPos="4.10" departSpeed="0.00" departDelay="0.00" arrival="244.00" arrivalLane="3o_0" arrivalPos="492.80" arrivalSpeed="10.80" duration="81.00" routeLength="995.70" waitingTime="0.00" waitingCount="0" stopTime="0.00" timeLoss="9.74" rerouteNo="0" devices="tripinfo_NS_163" vType="car" speedFactor="1.00" vaporized=""/>
    <tripinfo id="NS_177" depart="177.00" departLane="2i_0" departPos="4.10" departSpeed="0.00" departDelay="0.00" arrival="251.00" arrivalLane="1o_0" arrivalPos="492.80" arrivalSpeed="11.10" duration="74.00" routeLength="995.90" waitingTime="0.00" waitingCount="0" stopTime="0.00" timeLoss="8.22" rerouteNo="0" devices="tripinfo_NS_177" vType="car" speedFactor="1.08" vaporized=""/>
    <tripinfo id="WE_167" depart="167.00" departLane="1i_0" departPos="4.10" departSpeed="0.00" departDelay="0.00" arrival="256.00" arrivalLane="4o_0" arrivalPos="492.80" arrivalSpeed="9.30" duration="89.00" routeLength="995.70" waitingTime="0.00" waitingCount="0" stopTime="0.00" timeLoss="10.14" rerouteNo="0" devices="tripinfo_WE_167" vType="car" speedFactor="0.90" vaporized=""/>
    <tripinfo id="WE_170" depart="170.00" departLane="1i_0" departPos="4.10" departSpeed="0.00" departDelay="0.00" arrival="258.00" arrivalLane="4o_0" arrivalPos="492.80" arrivalSpeed="10.24" duration="88.00" routeLength="995.70" waitingTime="0.00" waitingCount="0" stopTime="0.00" timeLoss="18.33" rerouteNo="0" devices="tripinfo_WE_170" vType="car" speedFactor="1.02" vaporized=""/>
    <tripinfo id="WE_176" depart="176.00" departLane="1i_0" departPos="4.10" departSpeed="0.00" departDelay="0.00" arrival="260.00" arrivalLane="4o_0" arrivalPos="492.80" arrivalSpeed="9.72" duration="84.00" routeLength="995.70" waitingTime="0.00" waitingCount="0" stopTime="0.00" timeLoss="10.62" rerouteNo="0" devices="tripinfo_WE_176" vType="car" speedFactor="0.97" vaporized=""/>
    <tripinfo id="NS_179" depart="180.00" departLane="2i_0" departPos="4.10" departSpeed="0.00" departDelay="1.00" arrival="260.00" arrivalLane="3o_0" arrivalPos="492.80" arrivalSpeed="10.59" duration="80.00" routeLength="995.70" waitingTime="0.00" waitingCount="0" stopTime="0.00" timeLoss="10.27" rerouteNo="0" devices="tripinfo_NS_179" vType="car" speedFactor="1.02" vaporized=""/>
    <tripinfo id="NS_181" depart="182.00" departLane="2i_0" departPos="4.10" departSpeed="0.00" departDelay="1.00" arrival="263.00" arrivalLane="1o_0" arrivalPos="492.80" arrivalSpeed="9.93" duration="81.00" routeLength="995.90" waitingTime="0.00" waitingCount="0" stopTime="0.00" timeLoss="9.03" rerouteNo="0" devices="tripinfo_NS_181" vType="car" speedFactor="0.99" vaporized=""/>
    <tripinfo id="WE_194" depart="194.00" departLane="1i_0" departPos="4.10" departSpeed="0.00" departDelay="0.00" arrival="280.00" arrivalLane="3o_0" arrivalPos="492.80" arrivalSpeed="9.07" duration="86.00" routeLength="990.53" waitingTime="0.00" waitingCount="0" stopTime="0.00" timeLoss="8.88" rerouteNo="0" devices="tripinfo_WE_194" vType="car" speedFactor="0.91" vaporized=""/>
    <tripinfo id="NS_202" depart="202.00" departLane="2i_0" departPos="4.10" departSpeed="0.00" departDelay="0.00" arrival="284.00" arrivalLane="1o_0" arrivalPos="492.80" arrivalSpeed="9.37" duration="82.00" routeLength="995.90" waitingTime="0.00" waitingCount="0" stopTime="0.00" timeLoss="7.41" rerouteNo="0" devices="tripinfo_NS_202" vType="car" speedFactor="0.96" vaporized=""/>
    <tripinfo id="WE_200" depart="200.00" departLane="1i_0" departPos="4.10" departSpeed="0.00" departDelay="0.00" arrival="289.00" arrivalLane="4o_0" arrivalPos="492.80" arrivalSpeed="10.40" duration="89.00" routeLength="995.70" waitingTime="0.00" waitingCount="0" stopTime="0.00" timeLoss="12.99" rerouteNo="0" devices="tripinfo_WE_200" vType="car" speedFactor="0.94" vaporized=""/>
    <tripinfo id="NS_215" depart="215.00" departLane="2i_0" departPos="4.10" departSpeed="0.00" departDelay="0.00" arrival="289.00" arrivalLane="1o_0" arrivalPos="492.80" arrivalSpeed="11.78" duration="74.00" routeLength="995.90" waitingTime="0.00" waitingCount="0" stopTime="0.00" timeLoss="8.38" rerouteNo="0" devices="tripinfo_NS_215" vType="car" speedFactor="1.09" vaporized=""/>
    <tripinfo id="NS_206" depart="206.00" departLane="2i_0" departPos="10.10" departSpeed="0.00" departDelay="0.00" arrival="291.00" arrivalLane="4o_0" arrivalPos="492.80" arrivalSpeed="10.51" duration="85.00" routeLength="984.53" waitingTime="0.00" waitingCount="0" stopTime="0.00" timeLoss="14.05" rerouteNo="0" devices="tripinfo_NS_206" vType="truck" speedFactor="0.99" vaporized=""/>
    <tripinfo id="NS_222" depart="222.00" departLane="2i_0" departPos="4.10" departSpeed="0.00" departDelay="0.00" arrival="301.00" arrivalLane="3o_0" arrivalPos="492.80" arrivalSpeed="10.54" duration="79.00" routeLength="995.70" waitingTime="0.00" waitingCount="0" stopTime="0.00" timeLoss="9.21" rerouteNo="0" devices="tripinfo_NS_222" vType="car" speedFactor="1.02" vaporized=""/>
    <tripinfo id="NS_225" depart="225.00" departLane="2i_0" departPos="4.10" departSpeed="0.00" departDelay="0.00" arrival="304.00" arrivalLane="1o_0" arrivalPos="492.80" arrivalSpeed="10.94" duration="79.00" routeLength="995.90" waitingTime="0.00" waitingCount="0" stopTime="0.00" timeLoss="8.29" rerouteNo="0" devices="tripinfo_NS_225" vType="car" speedFactor="1.00" vaporized=""/>
    <tripinfo id="NS_230" depart="230.00" departLane="2i_0" departPos="4.10" departSpeed="0.00" departDelay="0.00" arrival="306.00" arrivalLane="4o_0" arrivalPos="492.80" arrivalSpeed="10.31" duration="76.00" routeLength="990.53" waitingTime="0.00" waitingCount="0" stopTime="0.00" timeLoss="8.51" rerouteNo="0" devices="tripinfo_NS_230" vType="car" speedFactor="1.04" vaporized=""/>
    <tripinfo id="WE_211" depart="212.00" departLane="1i_0" departPos="10.10" departSpeed="0.00" departDelay="1.00" arrival="326.00" arrivalLane="3o_0" arrivalPos="492.80" arrivalSpeed="10.56" duration="114.00" routeLength="984.53" waitingTime="22.00" waitingCount="1" stopTime="0.00" timeLoss="43.53" rerouteNo="0" devices="tripinfo_WE_211" vType="truck" speedFactor="1.00" vaporized=""/>
    <tripinfo id="NS_238" depart="238.00" departLane="2i_0" departPos="4.10" departSpeed="0.00" departDelay="0.00" arrival="326.00" arrivalLane="4o_0" arrivalPos="492.80" arrivalSpeed="8.77" duration="88.00" routeLength="990.53" waitingTime="0.00" waitingCount="0" stopTime="0.00" timeLoss="9.15" rerouteNo="0" devices="tripinfo_NS_238" vType="car" speedFactor="0.89" vaporized=""/>
    <tripinfo id="WE_208" depart="208.00" departLane="1i_0" departPos="4.10" departSpeed="0.00" departDelay="0.00" arrival="328.00" arrivalLane="4o_0" arrivalPos="492.80" arrivalSpeed="10.53" duration="120.00" routeLength="995.70" waitingTime="31.00" waitingCount="1" stopTime="0.00" timeLoss="51.20" rerouteNo="0" devices="tripinfo_WE_208" vType="car" speedFactor="1.03" vaporized=""/>
    <tripinfo id="NS_287" depart="287.00" departLane="2i_0" departPos="4.10" departSpeed="0.00" departDelay="0.00" arrival="359.00" arrivalLane="1o_0" arrivalPos="492.80" arrivalSpeed="11.22" duration="72.00" routeLength="995.90" waitingTime="0.00" waitingCount="0" stopTime="0.00" timeLoss="8.34" rerouteNo="0" devices="tripinfo_NS_287" vType="car" speedFactor="1.12" vaporized=""/>
    <tripinfo id="NS_296" depart="296.00" departLane="2i_0" departPos="4.10" departSpeed="0.00" departDelay="0.00" arrival="378.00" arrivalLane="1o_0" arrivalPos="492.80" arrivalSpeed="10.21" duration="82.00" routeLength="995.90" waitingTime="0.00" waitingCount="0" stopTime="0.00" timeLoss="8.71" rerouteNo="0" devices="tripinfo_NS_296" vType="car" speedFactor="0.97" vaporized=""/>
    <tripinfo id="WE_305" depart="305.00" departLane="1i_0" departPos="4.10" departSpeed="0.00" departDelay="0.00" arrival="380.00" arrivalLane="2o_0" arrivalPos="492.80" arrivalSpeed="11.12" duration="75.00" routeLength="995.90" waitingTime="0.00" waitingCount="0" stopTime="0.00" timeLoss="7.98" rerouteNo="0" devices="tripinfo_WE_305" vType="car" speedFactor="1.06" vaporized=""/>
    <tripinfo id="WE_312" depart="312.00" departLane="1i_0" departPos="4.10" departSpeed="0.00" departDelay="0.00" arrival="395.00" arrivalLane="2o_0" arrivalPos="492.80" arrivalSpeed="10.20" duration="83.00" routeLength="995.90" waitingTime="0.00" waitingCount="0" stopTime="0.00" timeLoss="8.30" rerouteNo="0" devices="tripinfo_WE_312" vType="car" speedFactor="0.96" vaporized=""/>
    <tripinfo id="WE_313" depart="315.00" departLane="1i_0" departPos="4.10" departSpeed="0.00" departDelay="2.00" arrival="400.00" arrivalLane="3o_0" arrivalPos="492.80" arrivalSpeed="9.29" duration="85.00" routeLength="990.53" waitingTime="0.00" waitingCount="0" stopTime="0.00" timeLoss="9.06" rerouteNo="0" devices="tripinfo_WE_313" vType="car" speedFactor="0.93" vaporized=""/>
    <tripinfo id="NS_318" depart="318.00" departLane="2i_0" departPos="4.10" departSpeed="0.00" departDelay="0.00" arrival="402.00" arrivalLane="3o_0" arrivalPos="492.80" arrivalSpeed="10.97" duration="84.00" routeLength="995.70" waitingTime="0.00" waitingCount="0" stopTime="0.00" timeLoss="19.19" rerouteNo="0" devices="tripinfo_NS_318" vType="car" speedFactor="1.10" vaporized=""/>
    <tripinfo id="WE_330" depart="330.00" departLane="1i_0" departPos="4.10" departSpeed="0.00" departDelay="0.00" arrival="410.00" arrivalLane="4o_0" arrivalPos="492.80" arrivalSpeed="10.97" duration="80.00" routeLength="995.70" waitingTime="0.00" waitingCount="0" stopTime="0.00" timeLoss="9.17" rerouteNo="0" devices="tripinfo_WE_330" vType="car" speedFactor="1.00" vaporized=""/>
    <tripinfo id="WE_344" depart="344.00" departLane="1i_0" departPos="4.10" departSpeed="0.00" departDelay="0.00" arrival="421.00" arrivalLane="3o_0" arrivalPos="492.80" arrivalSpeed="10.92" duration="77.00" routeLength="990.53" waitingTime="0.00" waitingCount="0" stopTime="0.00" timeLoss="7.86" rerouteNo="0" devices="tripinfo_WE_344" vType="car" speedFactor="1.03" vaporized=""/>
    <tripinfo id="WE_353" depart="353.00" departLane="1i_0" departPos="4.10" departSpeed="0.00" departDelay="0.00" arrival="428.00" arrivalLane="2o_0" arrivalPos="492.80" arrivalSpeed="11.30" duration="75.00" routeLength="995.90" waitingTime="0.00" waitingCount="0" stopTime="0.00" timeLoss="8.14" rerouteNo="0" devices="tripinfo_WE_353" vType="car" speedFactor="1.06" vaporized=""/>
    <tripinfo id="NS_361" depart="361.00" departLane="2i_0" departPos="4.10" departSpeed="0.00" departDelay="0.00" arrival="432.00" arrivalLane="1o_0" arrivalPos="492.80" arrivalSpeed="12.34" duration="71.00" routeLength="995.90" waitingTime="0.00" waitingCount="0" stopTime="0.00" timeLoss="7.36" rerouteNo="0" devices="tripinfo_NS_361" vType="car" speedFactor="1.12" vaporized=""/>
    <tripinfo id="NS_350" depart="350.00" departLane="2i_0" departPos="4.10" departSpeed="0.00" departDelay="0.00" arrival="434.00" arrivalLane="3o_0" arrivalPos="492.80" arrivalSpeed="10.42" duration="84.00" routeLength="995.70" waitingTime="0.00" waitingCount="0" stopTime="0.00" timeLoss="14.74" rerouteNo="0" devices="tripinfo_NS_350" vType="car" speedFactor="1.02" vaporized=""/>
    <tripinfo id="NS_383" depart="384.00" departLane="2i_0" departPos="4.10" departSpeed="0.00" departDelay="1.00" arrival="451.00" arrivalLane="1o_0" arrivalPos="492.80" arrivalSpeed="13.52" duration="67.00" routeLength="995.90" waitingTime="0.00" waitingCount="0" stopTime="0.00" timeLoss="9.29" rerouteNo="0" devices="tripinfo_NS_383" vType="car" speedFactor="1.23" vaporized=""/>
    <tripinfo id="EW_63" depart="63.00" departLane="4i_0" departPos="4.10" departSpeed="0.00" departDelay="0.00" arrival="452.00" arrivalLane="2o_0" arrivalPos="492.80" arrivalSpeed="9.88" duration="389.00" routeLength="981.50" waitingTime="301.00" waitingCount="1" stopTime="0.00" timeLoss="317.84" rerouteNo="0" devices="tripinfo_EW_63" vType="car" speedFactor="0.97" vaporized=""/>
    <tripinfo id="NS_381" depart="381.00" departLane="2i_0" departPos="4.10" departSpeed="0.00" departDelay="0.00" arrival="457.00" arrivalLane="4o_0" arrivalPos="492.80" arrivalSpeed="11.10" duration="76.00" routeLength="990.53" waitingTime="0.00" waitingCount="0" stopTime="0.00" timeLoss="7.50" rerouteNo="0" devices="tripinfo_NS_381" vType="car" speedFactor="1.04" vaporized=""/>
    <tripinfo id="WE_389" depart="389.00" departLane="1i_0" departPos="4.10" departSpeed="0.00" departDelay="0.00" arrival="460.00" arrivalLane="2o_0" arrivalPos="492.80" arrivalSpeed="11.76" duration="71.00" routeLength="995.90" waitingTime="0.00" waitingCount="0" stopTime="0.00" timeLoss="8.01" rerouteNo="0" devices="tripinfo_WE_389" vType="car" speedFactor="1.12" vaporized=""/>
    <tripinfo id="WE_379" depart="379.00" departLane="1i_0" departPos="4.10" departSpeed="0.00" departDelay="0.00" arrival="461.00" arrivalLane="3o_0" arrivalPos="492.80" arrivalSpeed="10.40" duration="82.00" routeLength="990.53" waitingTime="0.00" waitingCount="0" stopTime="0.00" timeLoss="7.97" rerouteNo="0" devices="tripinfo_WE_379" vType="car" speedFactor="0.96" vaporized=""/>
    <tripinfo id="NS_389" depart="389.00" departLane="2i_0" departPos="4.10" departSpeed="0.00" departDelay="0.00" arrival="466.00" arrivalLane="4o_0" arrivalPos="492.80" arrivalSpeed="10.72" duration="77.00" routeLength="990.53" waitingTime="0.00" waitingCount="0" stopTime="0.00" timeLoss="7.53" rerouteNo="0" devices="tripinfo_NS_389" vType="car" speedFactor="1.02" vaporized=""/>
    <tripinfo id="WE_393" depart="393.00" departLane="1i_0" departPos="4.10" departSpeed="0.00" departDelay="0.00" arrival="472.00" arrivalLane="3o_0" arrivalPos="492.80" arrivalSpeed="10.11" duration="79.00" routeLength="990.53" waitingTime="0.00" waitingCount="0" stopTime="0.00" timeLoss="8.80" rerouteNo="0" devices="tripinfo_WE_393" vType="car" speedFactor="1.00" vaporized=""/>
    <tripinfo id="SN_93" depart="93.00" departLane="3i_0" departPos="10.10" departSpeed="0.00" departDelay="0.00" arrival="474.00" arrivalLane="1o_0" arrivalPos="492.80" arrivalSpeed="11.89" duration="381.00" routeLength="975.50" waitingTime="301.00" waitingCount="1" stopTime="0.00" timeLoss="316.02" rerouteNo="0" devices="tripinfo_SN_93" vType="truck" speedFactor="1.09" vaporized=""/>
    <tripinfo id="WE_406" depart="406.00" departLane="1i_0" departPos="4.10" departSpeed="0.00" departDelay="0.00" arrival="477.00" arrivalLane="3o_0" arrivalPos="492.80" arrivalSpeed="11.77" duration="71.00" routeLength="990.53" waitingTime="0.00" waitingCount="0" stopTime="0.00" timeLoss="8.28" rerouteNo="0" devices="tripinfo_WE_406" vType="car" speedFactor="1.13" vaporized=""/>
    <tripinfo id="NS_410" depart="410.00" departLane="2i_0" departPos="4.10" departSpeed="0.00" departDelay="0.00" arrival="480.00" arrivalLane="4o_0" arrivalPos="492.80" arrivalSpeed="12.60" duration="70.00" routeLength="990.53" waitingTime="0.00" waitingCount="0" stopTime="0.00" timeLoss="7.64" rerouteNo="0" devices="tripinfo_NS_410" vType="car" speedFactor="1.14" vaporized=""/>
    <tripinfo id="WE_398" depart="398.00" departLane="1i_0" departPos="4.10" departSpeed="0.00" departDelay="0.00" arrival="481.00" arrivalLane="2o_0" arrivalPos="492.80" arrivalSpeed="9.32" duration="83.00" routeLength="995.90" waitingTime="0.00" waitingCount="0" stopTime="0.00" timeLoss="8.32" rerouteNo="0" devices="tripinfo_WE_398" vType="car" speedFactor="0.95" vaporized=""/>
    <tripinfo id="WE_403" depart="403.00" departLane="1i_0" departPos="4.10" departSpeed="0.00" departDelay="0.00" arrival="482.00" arrivalLane="2o_0" arrivalPos="492.80" arrivalSpeed="11.62" duration="79.00" routeLength="995.90" waitingTime="0.00" waitingCount="0" stopTime="0.00" timeLoss="18.16" rerouteNo="0" devices="tripinfo_WE_403" vType="car" speedFactor="1.16" vaporized=""/>