<?xml version="1.0" encoding="UTF-8"?>

<!-- generated on 2024-05-05 22:13:35 by Eclipse SUMO sumo Version 1.19.0
<configuration xmlns:xsi="http://www.w3.org/2001/XMLSchema-instance" xsi:noNamespaceSchemaLocation="http://sumo.dlr.de/xsd/sumoConfiguration.xsd">

    <input>
        <net-file value="twoone.net.xml"/>
        <route-files value="route_gen.rou.xml"/>
    </input>

    <output>
        <tripinfo-output value="tripinfo_epi231.xml"/>
    </output>

    <report>
        <no-warnings value="true"/>
    </report>

    <traci_server>
        <remote-port value="60829"/>
    </traci_server>

</configuration>
-->

<tripinfos xmlns:xsi="http://www.w3.org/2001/XMLSchema-instance" xsi:noNamespaceSchemaLocation="http://sumo.dlr.de/xsd/tripinfo_file.xsd">
    <tripinfo id="WE_1" depart="1.00" departLane="1i_0" departPos="4.10" departSpeed="0.00" departDelay="0.00" arrival="77.00" arrivalLane="4o_0" arrivalPos="492.80" arrivalSpeed="10.88" duration="76.00" routeLength="995.70" waitingTime="0.00" waitingCount="0" stopTime="0.00" timeLoss="9.27" rerouteNo="0" devices="tripinfo_WE_1" vType="car" speedFactor="1.06" vaporized=""/>
    <tripinfo id="WE_11" depart="11.00" departLane="1i_0" departPos="4.10" departSpeed="0.00" departDelay="0.00" arrival="87.00" arrivalLane="2o_0" arrivalPos="492.80" arrivalSpeed="11.19" duration="76.00" routeLength="995.90" waitingTime="0.00" waitingCount="0" stopTime="0.00" timeLoss="6.97" rerouteNo="0" devices="tripinfo_WE_11" vType="car" speedFactor="1.03" vaporized=""/>
    <tripinfo id="NS_21" depart="21.00" departLane="2i_0" departPos="4.10" departSpeed="0.00" departDelay="0.00" arrival="110.00" arrivalLane="3o_0" arrivalPos="492.80" arrivalSpeed="9.83" duration="89.00" routeLength="995.70" waitingTime="0.00" waitingCount="0" stopTime="0.00" timeLoss="8.99" rerouteNo="0" devices="tripinfo_NS_21" vType="car" speedFactor="0.89" vaporized=""/>
    <tripinfo id="WE_35" depart="35.00" departLane="1i_0" departPos="4.10" departSpeed="0.00" departDelay="0.00" arrival="111.00" arrivalLane="2o_0" arrivalPos="492.80" arrivalSpeed="10.75" duration="76.00" routeLength="995.90" waitingTime="0.00" waitingCount="0" stopTime="0.00" timeLoss="7.82" rerouteNo="0" devices="tripinfo_WE_35" vType="car" speedFactor="1.05" vaporized=""/>
    <tripinfo id="NS_35" depart="35.00" departLane="2i_0" departPos="4.10" departSpeed="0.00" departDelay="0.00" arrival="115.00" arrivalLane="1o_0" arrivalPos="492.80" arrivalSpeed="11.32" duration="80.00" routeLength="995.90" waitingTime="0.00" waitingCount="0" stopTime="0.00" timeLoss="16.85" rerouteNo="0" devices="tripinfo_NS_35" vType="car" speedFactor="1.12" vaporized=""/>
    <tripinfo id="NS_22" depart="24.00" departLane="2i_0" departPos="10.10" departSpeed="0.00" departDelay="2.00" arrival="119.00" arrivalLane="3o_0" arrivalPos="492.80" arrivalSpeed="10.58" duration="95.00" routeLength="989.70" waitingTime="2.00" waitingCount="1" stopTime="0.00" timeLoss="22.22" rerouteNo="0" devices="tripinfo_NS_22" vType="truck" speedFactor="0.97" vaporized=""/>
    <tripinfo id="WE_43" depart="43.00" departLane="1i_0" departPos="4.10" departSpeed="0.00" departDelay="0.00" arrival="128.00" arrivalLane="2o_0" arrivalPos="492.80" arrivalSpeed="9.44" duration="85.00" routeLength="995.90" waitingTime="0.00" waitingCount="0" stopTime="0.00" timeLoss="8.82" rerouteNo="0" devices="tripinfo_WE_43" vType="car" speedFactor="0.93" vaporized=""/>
    <tripinfo id="NS_67" depart="67.00" departLane="2i_0" departPos="4.10" departSpeed="0.00" departDelay="0.00" arrival="136.00" arrivalLane="1o_0" arrivalPos="492.80" arrivalSpeed="11.87" duration="69.00" routeLength="995.90" waitingTime="0.00" waitingCount="0" stopTime="0.00" timeLoss="7.62" rerouteNo="0" devices="tripinfo_NS_67" vType="car" speedFactor="1.16" vaporized=""/>
    <tripinfo id="WE_69" depart="69.00" departLane="1i_0" departPos="4.10" departSpeed="0.00" departDelay="0.00" arrival="149.00" arrivalLane="4o_0" arrivalPos="492.80" arrivalSpeed="9.97" duration="80.00" routeLength="995.70" waitingTime="0.00" waitingCount="0" stopTime="0.00" timeLoss="9.40" rerouteNo="0" devices="tripinfo_WE_69" vType="car" speedFactor="1.01" vaporized=""/>
    <tripinfo id="NS_76" depart="76.00" departLane="2i_0" departPos="10.10" departSpeed="0.00" departDelay="0.00" arrival="162.00" arrivalLane="1o_0" arrivalPos="492.80" arrivalSpeed="10.33" duration="86.00" routeLength="989.90" waitingTime="0.00" waitingCount="0" stopTime="0.00" timeLoss="10.97" rerouteNo="0" devices="tripinfo_NS_76" vType="truck" speedFactor="0.94" vaporized=""/>
    <tripinfo id="SN_9" depart="9.00" departLane="3i_0" departPos="4.10" departSpeed="0.00" departDelay="0.00" arrival="164.00" arrivalLane="4o_0" arrivalPos="492.80" arrivalSpeed="11.95" duration="155.00" routeLength="995.90" waitingTime="76.00" waitingCount="1" stopTime="0.00" timeLoss="89.09" rerouteNo="0" devices="tripinfo_SN_9" vType="car" speedFactor="1.08" vaporized=""/>
    <tripinfo id="NS_78" depart="79.00" departLane="2i_0" departPos="4.10" departSpeed="0.00" departDelay="1.00" arrival="164.00" arrivalLane="1o_0" arrivalPos="492.80" arrivalSpeed="11.96" duration="85.00" routeLength="995.90" waitingTime="1.00" waitingCount="1" stopTime="0.00" timeLoss="22.55" rerouteNo="0" devices="tripinfo_NS_78" vType="car" speedFactor="1.13" vaporized=""/>
    <tripinfo id="EW_5" depart="5.00" departLane="4i_0" departPos="4.10" departSpeed="0.00" departDelay="0.00" arrival="170.00" arrivalLane="1o_0" arrivalPos="492.80" arrivalSpeed="9.13" duration="165.00" routeLength="990.53" waitingTime="78.00" waitingCount="1" stopTime="0.00" timeLoss="89.47" rerouteNo="0" devices="tripinfo_EW_5" vType="car" speedFactor="0.94" vaporized=""/>
    <tripinfo id="WE_75" depart="75.00" departLane="1i_0" departPos="4.10" departSpeed="0.00" departDelay="0.00" arrival="170.00" arrivalLane="2o_0" arrivalPos="492.80" arrivalSpeed="8.37" duration="95.00" routeLength="995.90" waitingTime="0.00" waitingCount="0" stopTime="0.00" timeLoss="8.66" rerouteNo="0" devices="tripinfo_WE_75" vType="car" speedFactor="0.83" vaporized=""/>
    <tripinfo id="WE_77" depart="78.00" departLane="1i_0" departPos="4.10" departSpeed="0.00" departDelay="1.00" arrival="171.00" arrivalLane="2o_0" arrivalPos="492.80" arrivalSpeed="9.95" duration="93.00" routeLength="995.90" waitingTime="0.00" waitingCount="0" stopTime="0.00" timeLoss="15.97" rerouteNo="0" devices="tripinfo_WE_77" vType="car" speedFactor="0.92" vaporized=""/>
    <tripinfo id="EW_6" depart="8.00" departLane="4i_0" departPos="4.10" departSpeed="0.00" departDelay="2.00" arrival="172.00" arrivalLane="1o_0" arrivalPos="492.80" arrivalSpeed="10.77" duration="164.00" routeLength="990.53" waitingTime="76.00" waitingCount="1" stopTime="0.00" timeLoss="93.48" rerouteNo="0" devices="tripinfo_EW_6" vType="car" speedFactor="1.01" vaporized=""/>
    <tripinfo id="SN_19" depart="19.00" departLane="3i_0" departPos="4.10" departSpeed="0.00" departDelay="0.00" arrival="173.00" arrivalLane="1o_0" arrivalPos="492.80" arrivalSpeed="10.48" duration="154.00" routeLength="995.70" waitingTime="66.00" waitingCount="2" stopTime="0.00" timeLoss="86.53" rerouteNo="0" devices="tripinfo_SN_19" vType="car" speedFactor="1.05" vaporized=""/>
    <tripinfo id="WE_81" depart="81.00" departLane="1i_0" departPos="4.10" departSpeed="0.00" departDelay="0.00" arrival="173.00" arrivalLane="2o_0" arrivalPos="492.80" arrivalSpeed="9.58" duration="92.00" routeLength="995.90" waitingTime="0.00" waitingCount="0" stopTime="0.00" timeLoss="16.17" rerouteNo="0" devices="tripinfo_WE_81" vType="car" speedFactor="0.93" vaporized=""/>
    <tripinfo id="WE_88" depart="88.00" departLane="1i_0" departPos="4.10" departSpeed="0.00" departDelay="0.00" arrival="175.00" arrivalLane="2o_0" arrivalPos="492.80" arrivalSpeed="12.72" duration="87.00" routeLength="995.90" waitingTime="0.00" waitingCount="0" stopTime="0.00" timeLoss="25.33" rerouteNo="0" devices="tripinfo_WE_88" vType="car" speedFactor="1.15" vaporized=""/>
    <tripinfo id="NS_108" depart="108.00" departLane="2i_0" departPos="4.10" departSpeed="0.00" departDelay="0.00" arrival="176.00" arrivalLane="4o_0" arrivalPos="492.80" arrivalSpeed="12.45" duration="68.00" routeLength="990.53" waitingTime="0.00" waitingCount="0" stopTime="0.00" timeLoss="7.83" rerouteNo="0" devices="tripinfo_NS_108" vType="car" speedFactor="1.18" vaporized=""/>
    <tripinfo id="EW_19" depart="19.00" departLane="4i_0" departPos="4.10" departSpeed="0.00" departDelay="0.00" arrival="183.00" arrivalLane="2o_0" arrivalPos="492.80" arrivalSpeed="8.79" duration="164.00" routeLength="995.70" waitingTime="62.00" waitingCount="1" stopTime="0.00" timeLoss="78.76" rerouteNo="0" devices="tripinfo_EW_19" vType="car" speedFactor="0.83" vaporized=""/>
    <tripinfo id="EW_32" depart="32.00" departLane="4i_0" departPos="4.10" departSpeed="0.00" departDelay="0.00" arrival="183.00" arrivalLane="1o_0" arrivalPos="492.80" arrivalSpeed="11.03" duration="151.00" routeLength="990.53" waitingTime="55.00" waitingCount="1" stopTime="0.00" timeLoss="82.06" rerouteNo="0" devices="tripinfo_EW_32" vType="car" speedFactor="1.03" vaporized=""/>
    <tripinfo id="EW_26" depart="26.00" departLane="4i_0" departPos="4.10" departSpeed="0.00" departDelay="0.00" arrival="188.00" arrivalLane="3o_0" arrivalPos="492.80" arrivalSpeed="8.59" duration="162.00" routeLength="995.90" waitingTime="58.00" waitingCount="2" stopTime="0.00" timeLoss="78.92" rerouteNo="0" devices="tripinfo_EW_26" vType="car" speedFactor="0.86" vaporized=""/>
    <tripinfo id="EW_30" depart="30.00" departLane="4i_0" departPos="4.10" departSpeed="0.00" departDelay="0.00" arrival="189.00" arrivalLane="3o_0" arrivalPos="492.80" arrivalSpeed="11.96" duration="159.00" routeLength="995.90" waitingTime="57.00" waitingCount="2" stopTime="0.00" timeLoss="94.12" rerouteNo="0" devices="tripinfo_EW_30" vType="car" speedFactor="1.09" vaporized=""/>
    <tripinfo id="EW_42" depart="42.00" departLane="4i_0" departPos="4.10" departSpeed="0.00" departDelay="0.00" arrival="191.00" arrivalLane="3o_0" arrivalPos="492.80" arrivalSpeed="10.32" duration="149.00" routeLength="995.90" waitingTime="48.00" waitingCount="1" stopTime="0.00" timeLoss="77.58" rerouteNo="0" devices="tripinfo_EW_42" vType="car" speedFactor="0.99" vaporized=""/>
    <tripinfo id="EW_61" depart="61.00" departLane="4i_0" departPos="4.10" departSpeed="0.00" departDelay="0.00" arrival="191.00" arrivalLane="1o_0" arrivalPos="492.80" arrivalSpeed="9.69" duration="130.00" routeLength="990.53" waitingTime="29.00" waitingCount="1" stopTime="0.00" timeLoss="54.64" rerouteNo="0" devices="tripinfo_EW_61" vType="car" speedFactor="0.94" vaporized=""/>
    <tripinfo id="EW_99" depart="99.00" departLane="4i_0" departPos="4.10" departSpeed="0.00" departDelay="0.00" arrival="193.00" arrivalLane="3o_0" arrivalPos="492.80" arrivalSpeed="11.94" duration="94.00" routeLength="995.90" waitingTime="0.00" waitingCount="0" stopTime="0.00" timeLoss="33.10" rerouteNo="0" devices="tripinfo_EW_99" vType="car" speedFactor="1.17" vaporized=""/>
    <tripinfo id="EW_100" depart="102.00" departLane="4i_0" departPos="4.10" departSpeed="0.00" departDelay="2.00" arrival="193.00" arrivalLane="2o_0" arrivalPos="492.80" arrivalSpeed="10.72" duration="91.00" routeLength="995.70" waitingTime="0.00" waitingCount="0" stopTime="0.00" timeLoss="20.02" rerouteNo="0" devices="tripinfo_EW_100" vType="car" speedFactor="0.99" vaporized=""/>
    <tripinfo id="EW_103" depart="105.00" departLane="4i_0" departPos="4.10" departSpeed="0.00" departDelay="2.00" arrival="195.00" arrivalLane="2o_0" arrivalPos="492.80" arrivalSpeed="10.07" duration="90.00" routeLength="995.70" waitingTime="0.00" waitingCount="0" stopTime="0.00" timeLoss="20.67" rerouteNo="0" devices="tripinfo_EW_103" vType="car" speedFactor="1.02" vaporized=""/>
    <tripinfo id="EW_108" depart="108.00" departLane="4i_0" departPos="4.10" departSpeed="0.00" departDelay="0.00" arrival="197.00" arrivalLane="1o_0" arrivalPos="492.80" arrivalSpeed="10.20" duration="89.00" routeLength="990.53" waitingTime="0.00" waitingCount="0" stopTime="0.00" timeLoss="16.52" rerouteNo="0" devices="tripinfo_EW_108" vType="car" speedFactor="0.97" vaporized=""/>
    <tripinfo id="SN_68" depart="68.00" departLane="3i_0" departPos="4.10" departSpeed="0.00" departDelay="0.00" arrival="202.00" arrivalLane="4o_0" arrivalPos="492.80" arrivalSpeed="11.12" duration="134.00" routeLength="995.90" waitingTime="36.00" waitingCount="3" stopTime="0.00" timeLoss="64.44" rerouteNo="0" devices="tripinfo_SN_68" vType="car" speedFactor="1.02" vaporized=""/>
    <tripinfo id="SN_52" depart="52.00" departLane="3i_0" departPos="4.10" departSpeed="0.00" departDelay="0.00" arrival="206.00" arrivalLane="1o_0" arrivalPos="492.80" arrivalSpeed="9.67" duration="154.00" routeLength="995.70" waitingTime="50.00" waitingCount="4" stopTime="0.00" timeLoss="73.09" rerouteNo="0" devices="tripinfo_SN_52" vType="car" speedFactor="0.88" vaporized=""/>
    <tripinfo id="SN_59" depart="59.00" departLane="3i_0" departPos="4.10" departSpeed="0.00" departDelay="0.00" arrival="208.00" arrivalLane="1o_0" arrivalPos="492.80" arrivalSpeed="9.92" duration="149.00" routeLength="995.70" waitingTime="43.00" waitingCount="4" stopTime="0.00" timeLoss="73.34" rerouteNo="0" devices="tripinfo_SN_59" vType="car" speedFactor="0.94" vaporized=""/>
    <tripinfo id="SN_70" depart="71.00" departLane="3i_0" departPos="4.10" departSpeed="0.00" departDelay="1.00" arrival="210.00" arrivalLane="1o_0" arrivalPos="492.80" arrivalSpeed="9.90" duration="139.00" routeLength="995.70" waitingTime="33.00" waitingCount="3" stopTime="0.00" timeLoss="65.82" rerouteNo="0" devices="tripinfo_SN_70" vType="car" speedFactor="0.97" vaporized=""/>
    <tripinfo id="WE_110" depart="110.00" departLane="1i_0" departPos="4.10" departSpeed="0.00" departDelay="0.00" arrival="213.00" arrivalLane="4o_0" arrivalPos="492.80" arrivalSpeed="11.76" duration="103.00" routeLength="995.70" waitingTime="23.00" waitingCount="2" stopTime="0.00" timeLoss="38.35" rerouteNo="0" devices="tripinfo_WE_110" vType="car" speedFactor="1.10" vaporized=""/>
    <tripinfo id="SN_74" depart="74.00" departLane="3i_0" departPos="4.10" departSpeed="0.00" departDelay="0.00" arrival="214.00" arrivalLane="2o_0" arrivalPos="492.80" arrivalSpeed="8.97" duration="140.00" routeLength="990.53" waitingTime="28.00" waitingCount="2" stopTime="0.00" timeLoss="60.74" rerouteNo="0" devices="tripinfo_SN_74" vType="car" speedFactor="0.89" vaporized=""/>
    <tripinfo id="NS_113" depart="113.00" departLane="2i_0" departPos="4.10" departSpeed="0.00" departDelay="0.00" arrival="215.00" arrivalLane="3o_0" arrivalPos="492.80" arrivalSpeed="10.45" duration="102.00" routeLength="995.70" waitingTime="18.00" waitingCount="2" stopTime="0.00" timeLoss="33.07" rerouteNo="0" devices="tripinfo_NS_113" vType="car" speedFactor="1.03" vaporized=""/>
    <tripinfo id="SN_77" depart="77.00" departLane="3i_0" departPos="4.10" departSpeed="0.00" departDelay="0.00" arrival="219.00" arrivalLane="2o_0" arrivalPos="492.80" arrivalSpeed="10.28" duration="142.00" routeLength="990.53" waitingTime="28.00" waitingCount="3" stopTime="0.00" timeLoss="67.97" rerouteNo="0" devices="tripinfo_SN_77" vType="car" speedFactor="0.95" vaporized=""/>
    <tripinfo id="SN_84" depart="84.00" departLane="3i_0" departPos="4.10" departSpeed="0.00" departDelay="0.00" arrival="221.00" arrivalLane="2o_0" arrivalPos="492.80" arrivalSpeed="11.92" duration="137.00" routeLength="990.53" waitingTime="24.00" waitingCount="3" stopTime="0.00" timeLoss="77.05" rerouteNo="0" devices="tripinfo_SN_84" vType="car" speedFactor="1.18" vaporized=""/>
    <tripinfo id="WE_116" depart="116.00" departLane="1i_0" departPos="4.10" departSpeed="0.00" departDelay="0.00" arrival="223.00" arrivalLane="3o_0" arrivalPos="492.80" arrivalSpeed="9.55" duration="107.00" routeLength="990.53" waitingTime="13.00" waitingCount="2" stopTime="0.00" timeLoss="33.43" rerouteNo="0" devices="tripinfo_WE_116" vType="car" speedFactor="0.96" vaporized=""/>
    <tripinfo id="SN_96" depart="96.00" departLane="3i_0" departPos="4.10" departSpeed="0.00" departDelay="0.00" arrival="225.00" arrivalLane="2o_0" arrivalPos="492.80" arrivalSpeed="9.89" duration="129.00" routeLength="990.53" waitingTime="13.00" waitingCount="3" stopTime="0.00" timeLoss="58.36" rerouteNo="0" devices="tripinfo_SN_96" vType="car" speedFactor="1.01" vaporized=""/>
    <tripinfo id="WE_123" depart="123.00" departLane="1i_0" departPos="10.10" departSpeed="0.00" departDelay="0.00" arrival="226.00" arrivalLane="4o_0" arrivalPos="492.80" arrivalSpeed="10.79" duration="103.00" routeLength="989.70" waitingTime="4.00" waitingCount="1" stopTime="0.00" timeLoss="34.00" rerouteNo="0" devices="tripinfo_WE_123" vType="truck" speedFactor="1.02" vaporized=""/>
    <tripinfo id="WE_143" depart="143.00" departLane="1i_0" departPos="4.10" departSpeed="0.00" departDelay="0.00" arrival="230.00" arrivalLane="3o_0" arrivalPos="492.80" arrivalSpeed="10.81" duration="87.00" routeLength="990.53" waitingTime="0.00" waitingCount="0" stopTime="0.00" timeLoss="15.63" rerouteNo="0" devices="tripinfo_WE_143" vType="car" speedFactor="1.00" vaporized=""/>
    <tripinfo id="WE_152" depart="154.00" departLane="1i_0" departPos="4.10" departSpeed="0.00" departDelay="2.00" arrival="232.00" arrivalLane="3o_0" arrivalPos="492.80" arrivalSpeed="12.17" duration="78.00" routeLength="990.53" waitingTime="0.00" waitingCount="0" stopTime="0.00" timeLoss="17.28" rerouteNo="0" devices="tripinfo_WE_152" vType="car" speedFactor="1.17" vaporized=""/>
    <tripinfo id="SN_122" depart="122.00" departLane="3i_0" departPos="4.10" departSpeed="0.00" departDelay="0.00" arrival="235.00" arrivalLane="1o_0" arrivalPos="492.80" arrivalSpeed="11.02" duration="113.00" routeLength="995.70" waitingTime="8.00" waitingCount="3" stopTime="0.00" timeLoss="48.17" rerouteNo="0" devices="tripinfo_SN_122" vType="car" speedFactor="1.09" vaporized=""/>
    <tripinfo id="SN_112" depart="112.00" departLane="3i_0" departPos="4.10" departSpeed="0.00" departDelay="0.00" arrival="238.00" arrivalLane="4o_0" arrivalPos="492.80" arrivalSpeed="9.65" duration="126.00" routeLength="995.90" waitingTime="13.00" waitingCount="3" stopTime="0.00" timeLoss="47.04" rerouteNo="0" devices="tripinfo_SN_112" vType="car" speedFactor="0.90" vaporized=""/>
    <tripinfo id="NS_160" depart="160.00" departLane="2i_0" departPos="4.10" departSpeed="0.00" departDelay="0.00" arrival="241.00" arrivalLane="3o_0" arrivalPos="492.80" arrivalSpeed="10.06" duration="81.00" routeLength="995.70" waitingTime="0.00" waitingCount="0" stopTime="0.00" timeLoss="10.10" rerouteNo="0" devices="tripinfo_NS_160" vType="car" speedFactor="1.00" vaporized=""/>
    <tripinfo id="EW_146" depart="146.00" departLane="4i_0" departPos="4.10" departSpeed="0.00" departDelay="0.00" arrival="242.00" arrivalLane="2o_0" arrivalPos="492.80" arrivalSpeed="9.56" duration="96.00" routeLength="995.70" waitingTime="0.00" waitingCount="0" stopTime="0.00" timeLoss="15.50" rerouteNo="0" devices="tripinfo_EW_146" vType="car" speedFactor="0.88" vaporized=""/>
    <tripinfo id="NS_164" depart="164.00" departLane="2i_0" departPos="4.10" departSpeed="0.00" departDelay="0.00" arrival="245.00" arrivalLane="3o_0" arrivalPos="492.80" arrivalSpeed="10.55" duration="81.00" routeLength="995.70" waitingTime="0.00" waitingCount="0" stopTime="0.00" timeLoss="9.61" rerouteNo="0" devices="tripinfo_NS_164" vType="car" speedFactor="1.00" vaporized=""/>
    <tripinfo id="SN_142" depart="142.00" departLane="3i_0" departPos="4.10" departSpeed="0.00" departDelay="0.00" arrival="246.00" arrivalLane="4o_0" arrivalPos="492.80" arrivalSpeed="10.85" duration="104.00" routeLength="995.90" waitingTime="1.00" waitingCount="1" stopTime="0.00" timeLoss="38.57" rerouteNo="0" devices="tripinfo_SN_142" vType="car" speedFactor="1.09" vaporized=""/>
    <tripinfo id="WE_151" depart="151.00" departLane="1i_0" departPos="4.10" departSpeed="0.00" departDelay="0.00" arrival="247.00" arrivalLane="2o_0" arrivalPos="492.80" arrivalSpeed="9.21" duration="96.00" routeLength="995.90" waitingTime="0.00" waitingCount="0" stopTime="0.00" timeLoss="12.55" rerouteNo="0" devices="tripinfo_WE_151" vType="car" speedFactor="0.85" vaporized=""/>
    <tripinfo id="SN_134" depart="134.00" departLane="3i_0" departPos="4.10" departSpeed="0.00" departDelay="0.00" arrival="248.00" arrivalLane="2o_0" arrivalPos="492.80" arrivalSpeed="11.02" duration="114.00" routeLength="990.53" waitingTime="2.00" waitingCount="2" stopTime="0.00" timeLoss="46.50" rerouteNo="0" devices="tripinfo_SN_134" vType="car" speedFactor="1.04" vaporized=""/>
    <tripinfo id="WE_170" depart="173.00" departLane="1i_0" departPos="4.10" departSpeed="0.00" departDelay="3.00" arrival="248.00" arrivalLane="4o_0" arrivalPos="492.80" arrivalSpeed="12.08" duration="75.00" routeLength="995.70" waitingTime="0.00" waitingCount="0" stopTime="0.00" timeLoss="12.27" rerouteNo="0" devices="tripinfo_WE_170" vType="car" speedFactor="1.14" vaporized=""/>
    <tripinfo id="WE_176" depart="179.00" departLane="1i_0" departPos="4.10" departSpeed="0.00" departDelay="3.00" arrival="255.00" arrivalLane="3o_0" arrivalPos="492.80" arrivalSpeed="11.14" duration="76.00" routeLength="990.53" waitingTime="0.00" waitingCount="0" stopTime="0.00" timeLoss="10.31" rerouteNo="0" devices="tripinfo_WE_176" vType="car" speedFactor="1.08" vaporized=""/>
    <tripinfo id="WE_172" depart="176.00" departLane="1i_0" departPos="4.10" departSpeed="0.00" departDelay="4.00" arrival="256.00" arrivalLane="4o_0" arrivalPos="492.80" arrivalSpeed="10.40" duration="80.00" routeLength="995.70" waitingTime="0.00" waitingCount="0" stopTime="0.00" timeLoss="10.83" rerouteNo="0" devices="tripinfo_WE_172" vType="car" speedFactor="1.02" vaporized=""/>
    <tripinfo id="SN_143" depart="144.00" departLane="3i_0" departPos="4.10" departSpeed="0.00" departDelay="1.00" arrival="261.00" arrivalLane="2o_0" arrivalPos="492.80" arrivalSpeed="9.42" duration="117.00" routeLength="990.53" waitingTime="3.00" waitingCount="1" stopTime="0.00" timeLoss="38.41" rerouteNo="0" devices="tripinfo_SN_143" vType="car" speedFactor="0.90" vaporized=""/>
    <tripinfo id="EW_174" depart="176.00" departLane="4i_0" departPos="4.10" departSpeed="0.00" departDelay="2.00" arrival="266.00" arrivalLane="3o_0" arrivalPos="492.80" arrivalSpeed="9.88" duration="90.00" routeLength="995.90" waitingTime="4.00" waitingCount="1" stopTime="0.00" timeLoss="16.73" rerouteNo="0" devices="tripinfo_EW_174" vType="car" speedFactor="0.97" vaporized=""/>
    <tripinfo id="SN_154" depart="154.00" departLane="3i_0" departPos="10.10" departSpeed="0.00" departDelay="0.00" arrival="269.00" arrivalLane="1o_0" arrivalPos="492.80" arrivalSpeed="11.06" duration="115.00" routeLength="989.70" waitingTime="2.00" waitingCount="1" stopTime="0.00" timeLoss="45.15" rerouteNo="0" devices="tripinfo_SN_154" vType="truck" speedFactor="1.01" vaporized=""/>
    <tripinfo id="SN_149" depart="149.00" departLane="3i_0" departPos="4.10" departSpeed="0.00" departDelay="0.00" arrival="273.00" arrivalLane="4o_0" arrivalPos="492.80" arrivalSpeed="9.09" duration="124.00" routeLength="995.90" waitingTime="3.00" waitingCount="2" stopTime="0.00" timeLoss="40.36" rerouteNo="0" devices="tripinfo_SN_149" vType="car" speedFactor="0.85" vaporized=""/>
    <tripinfo id="WE_179" depart="183.00" departLane="1i_0" departPos="4.10" departSpeed="0.00" departDelay="4.00" arrival="274.00" arrivalLane="4o_0" arrivalPos="492.80" arrivalSpeed="10.70" duration="91.00" routeLength="995.70" waitingTime="0.00" waitingCount="0" stopTime="0.00" timeLoss="27.94" rerouteNo="0" devices="tripinfo_WE_179" vType="car" speedFactor="1.12" vaporized=""/>
    <tripinfo id="NS_189" depart="189.00" departLane="2i_0" departPos="4.10" departSpeed="0.00" departDelay="0.00" arrival="280.00" arrivalLane="1o_0" arrivalPos="492.80" arrivalSpeed="9.35" duration="91.00" routeLength="995.90" waitingTime="0.00" waitingCount="0" stopTime="0.00" timeLoss="10.65" rerouteNo="0" devices="tripinfo_NS_189" vType="car" speedFactor="0.88" vaporized=""/>
    <tripinfo id="EW_187" depart="187.00" departLane="4i_0" departPos="4.10" departSpeed="0.00" departDelay="0.00" arrival="282.00" arrivalLane="3o_0" arrivalPos="492.80" arrivalSpeed="9.91" duration="95.00" routeLength="995.90" waitingTime="7.00" waitingCount="1" stopTime="0.00" timeLoss="19.67" rerouteNo="0" devices="tripinfo_EW_187" vType="car" speedFactor="0.94" vaporized=""/>
    <tripinfo id="NS_190" depart="193.00" departLane="2i_0" departPos="4.10" departSpeed="0.00" departDelay="3.00" arrival="282.00" arrivalLane="1o_0" arrivalPos="492.80" arrivalSpeed="8.87" duration="89.00" routeLength="995.90" waitingTime="0.00" waitingCount="0" stopTime="0.00" timeLoss="10.78" rerouteNo="0" devices="tripinfo_NS_190" vType="car" speedFactor="0.91" vaporized=""/>
    <tripinfo id="SN_155" depart="158.00" departLane="3i_0" departPos="4.10" departSpeed="0.00" departDelay="3.00" arrival="284.00" arrivalLane="1o_0" arrivalPos="492.80" arrivalSpeed="11.36" duration="126.00" routeLength="995.70" waitingTime="7.00" waitingCount="3" stopTime="0.00" timeLoss="60.84" rerouteNo="0" devices="tripinfo_SN_155" vType="car" speedFactor="1.10" vaporized=""/>
    <tripinfo id="NS_202" depart="202.00" departLane="2i_0" departPos="4.10" departSpeed="0.00" departDelay="0.00" arrival="285.00" arrivalLane="1o_0" arrivalPos="492.80" arrivalSpeed="10.76" duration="83.00" routeLength="995.90" waitingTime="0.00" waitingCount="0" stopTime="0.00" timeLoss="15.17" rerouteNo="0" devices="tripinfo_NS_202" vType="car" speedFactor="1.04" vaporized=""/>
    <tripinfo id="EW_203" depart="203.00" departLane="4i_0" departPos="4.10" departSpeed="0.00" departDelay="0.00" arrival="287.00" arrivalLane="3o_0" arrivalPos="492.80" arrivalSpeed="11.18" duration="84.00" routeLength="995.90" waitingTime="2.00" waitingCount="1" stopTime="0.00" timeLoss="14.39" rerouteNo="0" devices="tripinfo_EW_203" vType="car" speedFactor="1.02" vaporized=""/>
    <tripinfo id="SN_164" depart="164.00" departLane="3i_0" departPos="4.10" departSpeed="0.00" departDelay="0.00" arrival="293.00" arrivalLane="2o_0" arrivalPos="492.80" arrivalSpeed="8.90" duration="129.00" routeLength="990.53" waitingTime="6.00" waitingCount="4" stopTime="0.00" timeLoss="50.69" rerouteNo="0" devices="tripinfo_SN_164" vType="car" speedFactor="0.90" vaporized=""/>
    <tripinfo id="EW_210" depart="210.00" departLane="4i_0" departPos="4.10" departSpeed="0.00" departDelay="0.00" arrival="298.00" arrivalLane="3o_0" arrivalPos="492.80" arrivalSpeed="9.96" duration="88.00" routeLength="995.90" waitingTime="2.00" waitingCount="1" stopTime="0.00" timeLoss="15.48" rerouteNo="0" devices="tripinfo_EW_210" vType="car" speedFactor="0.97" vaporized=""/>
    <tripinfo id="SN_199" depart="199.00" departLane="3i_0" departPos="4.10" departSpeed="0.00" departDelay="0.00" arrival="301.00" arrivalLane="2o_0" arrivalPos="492.80" arrivalSpeed="9.64" duration="102.00" routeLength="990.53" waitingTime="7.00" waitingCount="2" stopTime="0.00" timeLoss="24.91" rerouteNo="0" devices="tripinfo_SN_199" vType="car" speedFactor="0.91" vaporized=""/>
    <tripinfo id="NS_214" depart="214.00" departLane="2i_0" departPos="4.10" departSpeed="0.00" departDelay="0.00" arrival="304.00" arrivalLane="3o_0" arrivalPos="492.80" arrivalSpeed="10.30" duration="90.00" routeLength="995.70" waitingTime="2.00" waitingCount="1" stopTime="0.00" timeLoss="15.30" rerouteNo="0" devices="tripinfo_NS_214" vType="car" speedFactor="0.96" vaporized=""/>
    <tripinfo id="NS_219" depart="219.00" departLane="2i_0" departPos="4.10" departSpeed="0.00" departDelay="0.00" arrival="304.00" arrivalLane="4o_0" arrivalPos="492.80" arrivalSpeed="10.40" duration="85.00" routeLength="990.53" waitingTime="0.00" waitingCount="0" stopTime="0.00" timeLoss="12.60" rerouteNo="0" devices="tripinfo_NS_219" vType="car" speedFactor="0.98" vaporized=""/>
    <tripinfo id="EW_223" depart="223.00" departLane="4i_0" departPos="4.10" departSpeed="0.00" departDelay="0.00" arrival="304.00" arrivalLane="1o_0" arrivalPos="492.80" arrivalSpeed="11.29" duration="81.00" routeLength="990.53" waitingTime="0.00" waitingCount="0" stopTime="0.00" timeLoss="12.67" rerouteNo="0" devices="tripinfo_EW_223" vType="car" speedFactor="1.03" vaporized=""/>
    <tripinfo id="WE_181" depart="186.00" departLane="1i_0" departPos="4.10" departSpeed="0.00" departDelay="5.00" arrival="305.00" arrivalLane="4o_0" arrivalPos="492.80" arrivalSpeed="11.19" duration="119.00" routeLength="995.70" waitingTime="33.00" waitingCount="1" stopTime="0.00" timeLoss="49.44" rerouteNo="0" devices="tripinfo_WE_181" vType="car" speedFactor="1.02" vaporized=""/>
    <tripinfo id="SN_211" depart="211.00" departLane="3i_0" departPos="4.10" departSpeed="0.00" departDelay="0.00" arrival="309.00" arrivalLane="2o_0" arrivalPos="492.80" arrivalSpeed="9.49" duration="98.00" routeLength="990.53" waitingTime="6.00" waitingCount="2" stopTime="0.00" timeLoss="22.55" rerouteNo="0" devices="tripinfo_SN_211" vType="car" speedFactor="0.94" vaporized=""/>
    <tripinfo id="NS_226" depart="226.00" departLane="2i_0" departPos="4.10" departSpeed="0.00" departDelay="0.00" arrival="309.00" arrivalLane="1o_0" arrivalPos="492.80" arrivalSpeed="9.73" duration="83.00" routeLength="995.90" waitingTime="0.00" waitingCount="0" stopTime="0.00" timeLoss="9.59" rerouteNo="0" devices="tripinfo_NS_226" vType="car" speedFactor="0.97" vaporized=""/>
    <tripinfo id="WE_187" depart="191.00" departLane="1i_0" departPos="10.10" departSpeed="0.00" departDelay="4.00" arrival="314.00" arrivalLane="4o_0" arrivalPos="492.80" arrivalSpeed="10.80" duration="123.00" routeLength="989.70" waitingTime="27.00" waitingCount="2" stopTime="0.00" timeLoss="52.39" rerouteNo="0" devices="tripinfo_WE_187" vType="truck" speedFactor="0.99" vaporized=""/>