<?xml version="1.0" encoding="UTF-8"?>

<!-- generated on 2024-05-05 21:49:14 by Eclipse SUMO sumo Version 1.19.0
<configuration xmlns:xsi="http://www.w3.org/2001/XMLSchema-instance" xsi:noNamespaceSchemaLocation="http://sumo.dlr.de/xsd/sumoConfiguration.xsd">

    <input>
        <net-file value="twoone.net.xml"/>
        <route-files value="route_gen.rou.xml"/>
    </input>

    <output>
        <tripinfo-output value="tripinfo_epi119.xml"/>
    </output>

    <report>
        <no-warnings value="true"/>
    </report>

    <traci_server>
        <remote-port value="43505"/>
    </traci_server>

</configuration>
-->

<tripinfos xmlns:xsi="http://www.w3.org/2001/XMLSchema-instance" xsi:noNamespaceSchemaLocation="http://sumo.dlr.de/xsd/tripinfo_file.xsd">
    <tripinfo id="NS_0" depart="0.00" departLane="2i_0" departPos="4.10" departSpeed="0.00" departDelay="0.00" arrival="75.00" arrivalLane="1o_0" arrivalPos="492.80" arrivalSpeed="11.66" duration="75.00" routeLength="995.90" waitingTime="0.00" waitingCount="0" stopTime="0.00" timeLoss="8.33" rerouteNo="0" devices="tripinfo_NS_0" vType="car" speedFactor="1.06" vaporized=""/>
    <tripinfo id="NS_4" depart="4.00" departLane="2i_0" departPos="4.10" departSpeed="0.00" departDelay="0.00" arrival="82.00" arrivalLane="4o_0" arrivalPos="492.80" arrivalSpeed="10.59" duration="78.00" routeLength="990.53" waitingTime="0.00" waitingCount="0" stopTime="0.00" timeLoss="8.15" rerouteNo="0" devices="tripinfo_NS_4" vType="car" speedFactor="1.01" vaporized=""/>
    <tripinfo id="NS_5" depart="6.00" departLane="2i_0" departPos="4.10" departSpeed="0.00" departDelay="1.00" arrival="84.00" arrivalLane="4o_0" arrivalPos="492.80" arrivalSpeed="11.36" duration="78.00" routeLength="990.53" waitingTime="0.00" waitingCount="0" stopTime="0.00" timeLoss="12.29" rerouteNo="0" devices="tripinfo_NS_5" vType="car" speedFactor="1.08" vaporized=""/>
    <tripinfo id="WE_12" depart="12.00" departLane="1i_0" departPos="4.10" departSpeed="0.00" departDelay="0.00" arrival="89.00" arrivalLane="4o_0" arrivalPos="492.80" arrivalSpeed="11.44" duration="77.00" routeLength="995.70" waitingTime="0.00" waitingCount="0" stopTime="0.00" timeLoss="8.87" rerouteNo="0" devices="tripinfo_WE_12" vType="car" speedFactor="1.05" vaporized=""/>
    <tripinfo id="SN_2" depart="2.00" departLane="3i_0" departPos="4.10" departSpeed="0.00" departDelay="0.00" arrival="91.00" arrivalLane="2o_0" arrivalPos="492.80" arrivalSpeed="9.58" duration="89.00" routeLength="990.53" waitingTime="1.00" waitingCount="1" stopTime="0.00" timeLoss="13.60" rerouteNo="0" devices="tripinfo_SN_2" vType="car" speedFactor="0.94" vaporized=""/>
    <tripinfo id="SN_8" depart="8.00" departLane="3i_0" departPos="4.10" departSpeed="0.00" departDelay="0.00" arrival="93.00" arrivalLane="2o_0" arrivalPos="492.80" arrivalSpeed="10.74" duration="85.00" routeLength="990.53" waitingTime="0.00" waitingCount="0" stopTime="0.00" timeLoss="15.92" rerouteNo="0" devices="tripinfo_SN_8" vType="car" speedFactor="1.03" vaporized=""/>
    <tripinfo id="NS_14" depart="14.00" departLane="2i_0" departPos="4.10" departSpeed="0.00" departDelay="0.00" arrival="98.00" arrivalLane="1o_0" arrivalPos="492.80" arrivalSpeed="9.90" duration="84.00" routeLength="995.90" waitingTime="0.00" waitingCount="0" stopTime="0.00" timeLoss="8.37" rerouteNo="0" devices="tripinfo_NS_14" vType="car" speedFactor="0.94" vaporized=""/>
    <tripinfo id="NS_24" depart="24.00" departLane="2i_0" departPos="4.10" departSpeed="0.00" departDelay="0.00" arrival="99.00" arrivalLane="3o_0" arrivalPos="492.80" arrivalSpeed="11.56" duration="75.00" routeLength="995.70" waitingTime="0.00" waitingCount="0" stopTime="0.00" timeLoss="11.93" rerouteNo="0" devices="tripinfo_NS_24" vType="car" speedFactor="1.12" vaporized=""/>
    <tripinfo id="SN_12" depart="12.00" departLane="3i_0" departPos="4.10" departSpeed="0.00" departDelay="0.00" arrival="114.00" arrivalLane="4o_0" arrivalPos="492.80" arrivalSpeed="8.85" duration="102.00" routeLength="995.90" waitingTime="8.00" waitingCount="1" stopTime="0.00" timeLoss="22.16" rerouteNo="0" devices="tripinfo_SN_12" vType="car" speedFactor="0.89" vaporized=""/>
    <tripinfo id="EW_10" depart="10.00" departLane="4i_0" departPos="4.10" departSpeed="0.00" departDelay="0.00" arrival="121.00" arrivalLane="2o_0" arrivalPos="492.80" arrivalSpeed="7.97" duration="111.00" routeLength="995.70" waitingTime="11.00" waitingCount="2" stopTime="0.00" timeLoss="26.01" rerouteNo="0" devices="tripinfo_EW_10" vType="car" speedFactor="0.83" vaporized=""/>
    <tripinfo id="WE_25" depart="25.00" departLane="1i_0" departPos="4.10" departSpeed="0.00" departDelay="0.00" arrival="123.00" arrivalLane="2o_0" arrivalPos="492.80" arrivalSpeed="9.74" duration="98.00" routeLength="995.90" waitingTime="7.00" waitingCount="1" stopTime="0.00" timeLoss="26.15" rerouteNo="0" devices="tripinfo_WE_25" vType="car" speedFactor="0.99" vaporized=""/>
    <tripinfo id="EW_18" depart="18.00" departLane="4i_0" departPos="4.10" departSpeed="0.00" departDelay="0.00" arrival="125.00" arrivalLane="2o_0" arrivalPos="492.80" arrivalSpeed="10.48" duration="107.00" routeLength="995.70" waitingTime="6.00" waitingCount="2" stopTime="0.00" timeLoss="37.58" rerouteNo="0" devices="tripinfo_EW_18" vType="car" speedFactor="1.03" vaporized=""/>
    <tripinfo id="NS_42" depart="42.00" departLane="2i_0" departPos="4.10" departSpeed="0.00" departDelay="0.00" arrival="126.00" arrivalLane="4o_0" arrivalPos="492.80" arrivalSpeed="9.89" duration="84.00" routeLength="990.53" waitingTime="0.00" waitingCount="0" stopTime="0.00" timeLoss="8.74" rerouteNo="0" devices="tripinfo_NS_42" vType="car" speedFactor="0.94" vaporized=""/>
    <tripinfo id="SN_14" depart="14.00" departLane="3i_0" departPos="4.10" departSpeed="0.00" departDelay="0.00" arrival="127.00" arrivalLane="2o_0" arrivalPos="492.80" arrivalSpeed="9.17" duration="113.00" routeLength="990.53" waitingTime="10.00" waitingCount="3" stopTime="0.00" timeLoss="30.41" rerouteNo="0" devices="tripinfo_SN_14" vType="car" speedFactor="0.86" vaporized=""/>
    <tripinfo id="SN_17" depart="17.00" departLane="3i_0" departPos="4.10" departSpeed="0.00" departDelay="0.00" arrival="129.00" arrivalLane="2o_0" arrivalPos="492.80" arrivalSpeed="11.69" duration="112.00" routeLength="990.53" waitingTime="8.00" waitingCount="3" stopTime="0.00" timeLoss="46.71" rerouteNo="0" devices="tripinfo_SN_17" vType="car" speedFactor="1.09" vaporized=""/>
    <tripinfo id="NS_44" depart="45.00" departLane="2i_0" departPos="4.10" departSpeed="0.00" departDelay="1.00" arrival="129.00" arrivalLane="1o_0" arrivalPos="492.80" arrivalSpeed="10.35" duration="84.00" routeLength="995.90" waitingTime="0.00" waitingCount="0" stopTime="0.00" timeLoss="8.44" rerouteNo="0" devices="tripinfo_NS_44" vType="car" speedFactor="0.94" vaporized=""/>
    <tripinfo id="EW_50" depart="50.00" departLane="4i_0" departPos="4.10" departSpeed="0.00" departDelay="0.00" arrival="131.00" arrivalLane="1o_0" arrivalPos="492.80" arrivalSpeed="10.87" duration="81.00" routeLength="990.53" waitingTime="0.00" waitingCount="0" stopTime="0.00" timeLoss="11.02" rerouteNo="0" devices="tripinfo_EW_50" vType="car" speedFactor="1.01" vaporized=""/>
    <tripinfo id="SN_23" depart="23.00" departLane="3i_0" departPos="4.10" departSpeed="0.00" departDelay="0.00" arrival="133.00" arrivalLane="1o_0" arrivalPos="492.80" arrivalSpeed="11.23" duration="110.00" routeLength="995.70" waitingTime="7.00" waitingCount="5" stopTime="0.00" timeLoss="42.09" rerouteNo="0" devices="tripinfo_SN_23" vType="car" speedFactor="1.05" vaporized=""/>
    <tripinfo id="NS_54" depart="54.00" departLane="2i_0" departPos="4.10" departSpeed="0.00" departDelay="0.00" arrival="134.00" arrivalLane="4o_0" arrivalPos="492.80" arrivalSpeed="9.99" duration="80.00" routeLength="990.53" waitingTime="0.00" waitingCount="0" stopTime="0.00" timeLoss="7.36" rerouteNo="0" devices="tripinfo_NS_54" vType="car" speedFactor="0.97" vaporized=""/>
    <tripinfo id="WE_46" depart="46.00" departLane="1i_0" departPos="10.10" departSpeed="0.00" departDelay="0.00" arrival="136.00" arrivalLane="4o_0" arrivalPos="492.80" arrivalSpeed="11.50" duration="90.00" routeLength="989.70" waitingTime="0.00" waitingCount="0" stopTime="0.00" timeLoss="23.72" rerouteNo="0" devices="tripinfo_WE_46" vType="truck" speedFactor="1.08" vaporized=""/>
    <tripinfo id="SN_37" depart="37.00" departLane="3i_0" departPos="4.10" departSpeed="0.00" departDelay="0.00" arrival="140.00" arrivalLane="2o_0" arrivalPos="492.80" arrivalSpeed="9.85" duration="103.00" routeLength="990.53" waitingTime="1.00" waitingCount="1" stopTime="0.00" timeLoss="27.17" rerouteNo="0" devices="tripinfo_SN_37" vType="car" speedFactor="0.93" vaporized=""/>
    <tripinfo id="WE_55" depart="55.00" departLane="1i_0" departPos="4.10" departSpeed="0.00" departDelay="0.00" arrival="146.00" arrivalLane="2o_0" arrivalPos="492.80" arrivalSpeed="9.11" duration="91.00" routeLength="995.90" waitingTime="0.00" waitingCount="0" stopTime="0.00" timeLoss="11.53" rerouteNo="0" devices="tripinfo_WE_55" vType="car" speedFactor="0.89" vaporized=""/>
    <tripinfo id="SN_39" depart="40.00" departLane="3i_0" departPos="4.10" departSpeed="0.00" departDelay="1.00" arrival="151.00" arrivalLane="4o_0" arrivalPos="492.80" arrivalSpeed="9.22" duration="111.00" routeLength="995.90" waitingTime="1.00" waitingCount="1" stopTime="0.00" timeLoss="29.91" rerouteNo="0" devices="tripinfo_SN_39" vType="car" speedFactor="0.88" vaporized=""/>
    <tripinfo id="NS_56" depart="56.00" departLane="2i_0" departPos="4.10" departSpeed="0.00" departDelay="0.00" arrival="157.00" arrivalLane="4o_0" arrivalPos="492.80" arrivalSpeed="8.79" duration="101.00" routeLength="990.53" waitingTime="0.00" waitingCount="0" stopTime="0.00" timeLoss="15.19" rerouteNo="0" devices="tripinfo_NS_56" vType="car" speedFactor="0.83" vaporized=""/>
    <tripinfo id="EW_63" depart="63.00" departLane="4i_0" departPos="4.10" departSpeed="0.00" departDelay="0.00" arrival="157.00" arrivalLane="3o_0" arrivalPos="492.80" arrivalSpeed="9.37" duration="94.00" routeLength="995.90" waitingTime="0.00" waitingCount="0" stopTime="0.00" timeLoss="12.90" rerouteNo="0" devices="tripinfo_EW_63" vType="car" speedFactor="0.87" vaporized=""/>
    <tripinfo id="SN_80" depart="80.00" departLane="3i_0" departPos="4.10" departSpeed="0.00" departDelay="0.00" arrival="157.00" arrivalLane="2o_0" arrivalPos="492.80" arrivalSpeed="12.85" duration="77.00" routeLength="990.53" waitingTime="2.00" waitingCount="1" stopTime="0.00" timeLoss="17.00" rerouteNo="0" devices="tripinfo_SN_80" vType="car" speedFactor="1.17" vaporized=""/>
    <tripinfo id="SN_46" depart="46.00" departLane="3i_0" departPos="4.10" departSpeed="0.00" departDelay="0.00" arrival="158.00" arrivalLane="4o_0" arrivalPos="492.80" arrivalSpeed="10.20" duration="112.00" routeLength="995.90" waitingTime="1.00" waitingCount="1" stopTime="0.00" timeLoss="42.66" rerouteNo="0" devices="tripinfo_SN_46" vType="car" speedFactor="1.02" vaporized=""/>
    <tripinfo id="WE_68" depart="68.00" departLane="1i_0" departPos="4.10" departSpeed="0.00" departDelay="0.00" arrival="159.00" arrivalLane="3o_0" arrivalPos="492.80" arrivalSpeed="9.61" duration="91.00" routeLength="990.53" waitingTime="3.00" waitingCount="1" stopTime="0.00" timeLoss="16.67" rerouteNo="0" devices="tripinfo_WE_68" vType="car" speedFactor="0.95" vaporized=""/>
    <tripinfo id="NS_76" depart="76.00" departLane="2i_0" departPos="4.10" departSpeed="0.00" departDelay="0.00" arrival="160.00" arrivalLane="4o_0" arrivalPos="492.80" arrivalSpeed="12.60" duration="84.00" routeLength="990.53" waitingTime="0.00" waitingCount="0" stopTime="0.00" timeLoss="22.90" rerouteNo="0" devices="tripinfo_NS_76" vType="car" speedFactor="1.15" vaporized=""/>
    <tripinfo id="WE_72" depart="72.00" departLane="1i_0" departPos="4.10" departSpeed="0.00" departDelay="0.00" arrival="161.00" arrivalLane="3o_0" arrivalPos="492.80" arrivalSpeed="9.91" duration="89.00" routeLength="990.53" waitingTime="0.00" waitingCount="0" stopTime="0.00" timeLoss="13.18" rerouteNo="0" devices="tripinfo_WE_72" vType="car" speedFactor="0.93" vaporized=""/>
    <tripinfo id="EW_68" depart="70.00" departLane="4i_0" departPos="4.10" departSpeed="0.00" departDelay="2.00" arrival="162.00" arrivalLane="2o_0" arrivalPos="492.80" arrivalSpeed="11.94" duration="92.00" routeLength="995.70" waitingTime="4.00" waitingCount="1" stopTime="0.00" timeLoss="28.94" rerouteNo="0" devices="tripinfo_EW_68" vType="car" speedFactor="1.13" vaporized=""/>
    <tripinfo id="SN_73" depart="73.00" departLane="3i_0" departPos="4.10" departSpeed="0.00" departDelay="0.00" arrival="162.00" arrivalLane="4o_0" arrivalPos="492.80" arrivalSpeed="13.03" duration="89.00" routeLength="995.90" waitingTime="1.00" waitingCount="1" stopTime="0.00" timeLoss="28.59" rerouteNo="0" devices="tripinfo_SN_73" vType="car" speedFactor="1.18" vaporized=""/>
    <tripinfo id="EW_67" depart="67.00" departLane="4i_0" departPos="4.10" departSpeed="0.00" departDelay="0.00" arrival="163.00" arrivalLane="3o_0" arrivalPos="492.80" arrivalSpeed="9.10" duration="96.00" routeLength="995.90" waitingTime="2.00" waitingCount="1" stopTime="0.00" timeLoss="18.70" rerouteNo="0" devices="tripinfo_EW_67" vType="car" speedFactor="0.92" vaporized=""/>
    <tripinfo id="NS_79" depart="79.00" departLane="2i_0" departPos="4.10" departSpeed="0.00" departDelay="0.00" arrival="164.00" arrivalLane="4o_0" arrivalPos="492.80" arrivalSpeed="9.91" duration="85.00" routeLength="990.53" waitingTime="0.00" waitingCount="0" stopTime="0.00" timeLoss="14.63" rerouteNo="0" devices="tripinfo_NS_79" vType="car" speedFactor="1.01" vaporized=""/>
    <tripinfo id="NS_89" depart="89.00" departLane="2i_0" departPos="4.10" departSpeed="0.00" departDelay="0.00" arrival="165.00" arrivalLane="3o_0" arrivalPos="492.80" arrivalSpeed="10.95" duration="76.00" routeLength="995.70" waitingTime="0.00" waitingCount="0" stopTime="0.00" timeLoss="11.48" rerouteNo="0" devices="tripinfo_NS_89" vType="car" speedFactor="1.10" vaporized=""/>
    <tripinfo id="SN_84" depart="84.00" departLane="3i_0" departPos="4.10" departSpeed="0.00" departDelay="0.00" arrival="166.00" arrivalLane="1o_0" arrivalPos="492.80" arrivalSpeed="10.26" duration="82.00" routeLength="995.70" waitingTime="0.00" waitingCount="0" stopTime="0.00" timeLoss="12.62" rerouteNo="0" devices="tripinfo_SN_84" vType="car" speedFactor="1.02" vaporized=""/>
    <tripinfo id="WE_88" depart="88.00" departLane="1i_0" departPos="4.10" departSpeed="0.00" departDelay="0.00" arrival="166.00" arrivalLane="2o_0" arrivalPos="492.80" arrivalSpeed="12.09" duration="78.00" routeLength="995.90" waitingTime="0.00" waitingCount="0" stopTime="0.00" timeLoss="17.69" rerouteNo="0" devices="tripinfo_WE_88" vType="car" speedFactor="1.18" vaporized=""/>
    <tripinfo id="WE_85" depart="85.00" departLane="1i_0" departPos="4.10" departSpeed="0.00" departDelay="0.00" arrival="173.00" arrivalLane="4o_0" arrivalPos="492.80" arrivalSpeed="9.93" duration="88.00" routeLength="995.70" waitingTime="1.00" waitingCount="1" stopTime="0.00" timeLoss="15.38" rerouteNo="0" devices="tripinfo_WE_85" vType="car" speedFactor="0.97" vaporized=""/>
    <tripinfo id="WE_97" depart="98.00" departLane="1i_0" departPos="4.10" departSpeed="0.00" departDelay="1.00" arrival="185.00" arrivalLane="2o_0" arrivalPos="492.80" arrivalSpeed="8.83" duration="87.00" routeLength="995.90" waitingTime="0.00" waitingCount="0" stopTime="0.00" timeLoss="7.94" rerouteNo="0" devices="tripinfo_WE_97" vType="car" speedFactor="0.90" vaporized=""/>
    <tripinfo id="SN_106" depart="106.00" departLane="3i_0" departPos="4.10" departSpeed="0.00" departDelay="0.00" arrival="189.00" arrivalLane="2o_0" arrivalPos="492.80" arrivalSpeed="10.17" duration="83.00" routeLength="990.53" waitingTime="1.00" waitingCount="1" stopTime="0.00" timeLoss="14.79" rerouteNo="0" devices="tripinfo_SN_106" vType="car" speedFactor="1.03" vaporized=""/>
    <tripinfo id="NS_113" depart="113.00" departLane="2i_0" departPos="4.10" departSpeed="0.00" departDelay="0.00" arrival="189.00" arrivalLane="4o_0" arrivalPos="492.80" arrivalSpeed="10.73" duration="76.00" routeLength="990.53" waitingTime="0.00" waitingCount="0" stopTime="0.00" timeLoss="7.92" rerouteNo="0" devices="tripinfo_NS_113" vType="car" speedFactor="1.04" vaporized=""/>
    <tripinfo id="EW_81" depart="84.00" departLane="4i_0" departPos="4.10" departSpeed="0.00" departDelay="3.00" arrival="192.00" arrivalLane="3o_0" arrivalPos="492.80" arrivalSpeed="11.01" duration="108.00" routeLength="995.90" waitingTime="21.00" waitingCount="1" stopTime="0.00" timeLoss="36.42" rerouteNo="0" devices="tripinfo_EW_81" vType="car" speedFactor="0.99" vaporized=""/>
    <tripinfo id="WE_110" depart="112.00" departLane="1i_0" departPos="4.10" departSpeed="0.00" departDelay="2.00" arrival="193.00" arrivalLane="4o_0" arrivalPos="492.80" arrivalSpeed="11.34" duration="81.00" routeLength="995.70" waitingTime="0.00" waitingCount="0" stopTime="0.00" timeLoss="16.15" rerouteNo="0" devices="tripinfo_WE_110" vType="car" speedFactor="1.09" vaporized=""/>
    <tripinfo id="WE_109" depart="109.00" departLane="1i_0" departPos="4.10" departSpeed="0.00" departDelay="0.00" arrival="198.00" arrivalLane="2o_0" arrivalPos="492.80" arrivalSpeed="10.03" duration="89.00" routeLength="995.90" waitingTime="0.00" waitingCount="0" stopTime="0.00" timeLoss="14.60" rerouteNo="0" devices="tripinfo_WE_109" vType="car" speedFactor="0.96" vaporized=""/>
    <tripinfo id="WE_116" depart="116.00" departLane="1i_0" departPos="4.10" departSpeed="0.00" departDelay="0.00" arrival="200.00" arrivalLane="2o_0" arrivalPos="492.80" arrivalSpeed="11.95" duration="84.00" routeLength="995.90" waitingTime="0.00" waitingCount="0" stopTime="0.00" timeLoss="18.14" rerouteNo="0" devices="tripinfo_WE_116" vType="car" speedFactor="1.09" vaporized=""/>
    <tripinfo id="SN_114" depart="114.00" departLane="3i_0" departPos="4.10" departSpeed="0.00" departDelay="0.00" arrival="201.00" arrivalLane="4o_0" arrivalPos="492.80" arrivalSpeed="11.01" duration="87.00" routeLength="995.90" waitingTime="4.00" waitingCount="2" stopTime="0.00" timeLoss="19.21" rerouteNo="0" devices="tripinfo_SN_114" vType="car" speedFactor="1.04" vaporized=""/>
    <tripinfo id="EW_118" depart="118.00" departLane="4i_0" departPos="4.10" departSpeed="0.00" departDelay="0.00" arrival="207.00" arrivalLane="1o_0" arrivalPos="492.80" arrivalSpeed="8.79" duration="89.00" routeLength="990.53" waitingTime="0.00" waitingCount="0" stopTime="0.00" timeLoss="10.76" rerouteNo="0" devices="tripinfo_EW_118" vType="car" speedFactor="0.90" vaporized=""/>
    <tripinfo id="SN_116" depart="117.00" departLane="3i_0" departPos="4.10" departSpeed="0.00" departDelay="1.00" arrival="209.00" arrivalLane="2o_0" arrivalPos="492.80" arrivalSpeed="10.84" duration="92.00" routeLength="990.53" waitingTime="3.00" waitingCount="2" stopTime="0.00" timeLoss="21.05" rerouteNo="0" devices="tripinfo_SN_116" vType="car" speedFactor="1.00" vaporized=""/>
    <tripinfo id="NS_130" depart="130.00" departLane="2i_0" departPos="4.10" departSpeed="0.00" departDelay="0.00" arrival="209.00" arrivalLane="1o_0" arrivalPos="492.80" arrivalSpeed="10.88" duration="79.00" routeLength="995.90" waitingTime="1.00" waitingCount="1" stopTime="0.00" timeLoss="13.78" rerouteNo="0" devices="tripinfo_NS_130" vType="car" speedFactor="1.10" vaporized=""/>
    <tripinfo id="WE_120" depart="120.00" departLane="1i_0" departPos="4.10" departSpeed="0.00" departDelay="0.00" arrival="210.00" arrivalLane="3o_0" arrivalPos="492.80" arrivalSpeed="9.45" duration="90.00" routeLength="990.53" waitingTime="0.00" waitingCount="0" stopTime="0.00" timeLoss="9.19" rerouteNo="0" devices="tripinfo_WE_120" vType="car" speedFactor="0.88" vaporized=""/>
    <tripinfo id="NS_141" depart="141.00" departLane="2i_0" departPos="4.10" departSpeed="0.00" departDelay="0.00" arrival="211.00" arrivalLane="4o_0" arrivalPos="492.80" arrivalSpeed="12.15" duration="70.00" routeLength="990.53" waitingTime="0.00" waitingCount="0" stopTime="0.00" timeLoss="8.35" rerouteNo="0" devices="tripinfo_NS_141" vType="car" speedFactor="1.14" vaporized=""/>
    <tripinfo id="WE_123" depart="123.00" departLane="1i_0" departPos="4.10" departSpeed="0.00" departDelay="0.00" arrival="215.00" arrivalLane="3o_0" arrivalPos="492.80" arrivalSpeed="8.69" duration="92.00" routeLength="990.53" waitingTime="0.00" waitingCount="0" stopTime="0.00" timeLoss="8.79" rerouteNo="0" devices="tripinfo_WE_123" vType="car" speedFactor="0.85" vaporized=""/>
    <tripinfo id="WE_137" depart="137.00" departLane="1i_0" departPos="4.10" departSpeed="0.00" departDelay="0.00" arrival="217.00" arrivalLane="2o_0" arrivalPos="492.80" arrivalSpeed="9.78" duration="80.00" routeLength="995.90" waitingTime="0.00" waitingCount="0" stopTime="0.00" timeLoss="8.43" rerouteNo="0" devices="tripinfo_WE_137" vType="car" speedFactor="1.00" vaporized=""/>
    <tripinfo id="NS_143" depart="147.00" departLane="2i_0" departPos="4.10" departSpeed="0.00" departDelay="4.00" arrival="222.00" arrivalLane="1o_0" arrivalPos="492.80" arrivalSpeed="11.64" duration="75.00" routeLength="995.90" waitingTime="0.00" waitingCount="0" stopTime="0.00" timeLoss="9.34" rerouteNo="0" devices="tripinfo_NS_143" vType="car" speedFactor="1.08" vaporized=""/>
    <tripinfo id="NS_142" depart="144.00" departLane="2i_0" departPos="4.10" departSpeed="0.00" departDelay="2.00" arrival="225.00" arrivalLane="4o_0" arrivalPos="492.80" arrivalSpeed="10.24" duration="81.00" routeLength="990.53" waitingTime="0.00" waitingCount="0" stopTime="0.00" timeLoss="8.47" rerouteNo="0" devices="tripinfo_NS_142" vType="car" speedFactor="0.97" vaporized=""/>
    <tripinfo id="NS_144" depart="150.00" departLane="2i_0" departPos="4.10" departSpeed="0.00" departDelay="6.00" arrival="228.00" arrivalLane="1o_0" arrivalPos="492.80" arrivalSpeed="10.72" duration="78.00" routeLength="995.90" waitingTime="0.00" waitingCount="0" stopTime="0.00" timeLoss="7.92" rerouteNo="0" devices="tripinfo_NS_144" vType="car" speedFactor="1.02" vaporized=""/>
    <tripinfo id="NS_156" depart="157.00" departLane="2i_0" departPos="4.10" departSpeed="0.00" departDelay="1.00" arrival="244.00" arrivalLane="4o_0" arrivalPos="492.80" arrivalSpeed="10.03" duration="87.00" routeLength="990.53" waitingTime="0.00" waitingCount="0" stopTime="0.00" timeLoss="8.70" rerouteNo="0" devices="tripinfo_NS_156" vType="car" speedFactor="0.91" vaporized=""/>
    <tripinfo id="EW_129" depart="129.00" departLane="4i_0" departPos="4.10" departSpeed="0.00" departDelay="0.00" arrival="247.00" arrivalLane="3o_0" arrivalPos="492.80" arrivalSpeed="10.47" duration="118.00" routeLength="995.90" waitingTime="31.00" waitingCount="1" stopTime="0.00" timeLoss="48.24" rerouteNo="0" devices="tripinfo_EW_129" vType="car" speedFactor="1.02" vaporized=""/>
    <tripinfo id="EW_142" depart="142.00" departLane="4i_0" departPos="4.10" departSpeed="0.00" departDelay="0.00" arrival="249.00" arrivalLane="3o_0" arrivalPos="492.80" arrivalSpeed="10.80" duration="107.00" routeLength="995.90" waitingTime="23.00" waitingCount="1" stopTime="0.00" timeLoss="37.51" rerouteNo="0" devices="tripinfo_EW_142" vType="car" speedFactor="1.02" vaporized=""/>
    <tripinfo id="EW_125" depart="126.00" departLane="4i_0" departPos="4.10" departSpeed="0.00" departDelay="1.00" arrival="254.00" arrivalLane="2o_0" arrivalPos="492.80" arrivalSpeed="8.76" duration="128.00" routeLength="995.70" waitingTime="34.00" waitingCount="1" stopTime="0.00" timeLoss="45.18" rerouteNo="0" devices="tripinfo_EW_125" vType="car" speedFactor="0.85" vaporized=""/>
    <tripinfo id="EW_150" depart="151.00" departLane="4i_0" departPos="4.10" departSpeed="0.00" departDelay="1.00" arrival="255.00" arrivalLane="1o_0" arrivalPos="492.80" arrivalSpeed="10.88" duration="104.00" routeLength="990.53" waitingTime="17.00" waitingCount="1" stopTime="0.00" timeLoss="32.30" rerouteNo="0" devices="tripinfo_EW_150" vType="car" speedFactor="0.99" vaporized=""/>
    <tripinfo id="EW_144" depart="145.00" departLane="4i_0" departPos="4.10" departSpeed="0.00" departDelay="1.00" arrival="256.00" arrivalLane="2o_0" arrivalPos="492.80" arrivalSpeed="12.02" duration="111.00" routeLength="995.70" waitingTime="22.00" waitingCount="1" stopTime="0.00" timeLoss="47.17" rerouteNo="0" devices="tripinfo_EW_144" vType="car" speedFactor="1.12" vaporized=""/>
    <tripinfo id="WE_161" depart="161.00" departLane="1i_0" departPos="10.10" departSpeed="0.00" departDelay="0.00" arrival="256.00" arrivalLane="4o_0" arrivalPos="492.80" arrivalSpeed="11.14" duration="95.00" routeLength="989.70" waitingTime="3.00" waitingCount="2" stopTime="0.00" timeLoss="25.37" rerouteNo="0" devices="tripinfo_WE_161" vType="truck" speedFactor="1.02" vaporized=""/>
    <tripinfo id="EW_181" depart="181.00" departLane="4i_0" departPos="4.10" departSpeed="0.00" departDelay="0.00" arrival="264.00" arrivalLane="1o_0" arrivalPos="492.80" arrivalSpeed="10.26" duration="83.00" routeLength="990.53" waitingTime="0.00" waitingCount="0" stopTime="0.00" timeLoss="11.72" rerouteNo="0" devices="tripinfo_EW_181" vType="car" speedFactor="0.98" vaporized=""/>
    <tripinfo id="EW_177" depart="177.00" departLane="4i_0" departPos="4.10" departSpeed="0.00" departDelay="0.00" arrival="265.00" arrivalLane="2o_0" arrivalPos="492.80" arrivalSpeed="10.21" duration="88.00" routeLength="995.70" waitingTime="0.00" waitingCount="0" stopTime="0.00" timeLoss="13.22" rerouteNo="0" devices="tripinfo_EW_177" vType="car" speedFactor="0.96" vaporized=""/>
    <tripinfo id="EW_154" depart="154.00" departLane="4i_0" departPos="4.10" departSpeed="0.00" departDelay="0.00" arrival="267.00" arrivalLane="3o_0" arrivalPos="492.80" arrivalSpeed="8.79" duration="113.00" routeLength="995.90" waitingTime="11.00" waitingCount="1" stopTime="0.00" timeLoss="32.57" rerouteNo="0" devices="tripinfo_EW_154" vType="car" speedFactor="0.88" vaporized=""/>
    <tripinfo id="EW_184" depart="185.00" departLane="4i_0" departPos="10.10" departSpeed="0.00" departDelay="1.00" arrival="270.00" arrivalLane="2o_0" arrivalPos="492.80" arrivalSpeed="10.97" duration="85.00" routeLength="989.70" waitingTime="0.00" waitingCount="0" stopTime="0.00" timeLoss="15.09" rerouteNo="0" devices="tripinfo_EW_184" vType="truck" speedFactor="1.02" vaporized=""/>
    <tripinfo id="SN_128" depart="128.00" departLane="3i_0" departPos="4.10" departSpeed="0.00" departDelay="0.00" arrival="271.00" arrivalLane="1o_0" arrivalPos="492.80" arrivalSpeed="11.74" duration="143.00" routeLength="995.70" waitingTime="61.00" waitingCount="2" stopTime="0.00" timeLoss="81.88" rerouteNo="0" devices="tripinfo_SN_128" vType="car" speedFactor="1.17" vaporized=""/>
    <tripinfo id="EW_196" depart="196.00" departLane="4i_0" departPos="4.10" departSpeed="0.00" departDelay="0.00" arrival="273.00" arrivalLane="3o_0" arrivalPos="492.80" arrivalSpeed="11.39" duration="77.00" routeLength="995.90" waitingTime="0.00" waitingCount="0" stopTime="0.00" timeLoss="7.58" rerouteNo="0" devices="tripinfo_EW_196" vType="car" speedFactor="1.03" vaporized=""/>
    <tripinfo id="SN_136" depart="136.00" departLane="3i_0" departPos="10.10" departSpeed="0.00" departDelay="0.00" arrival="282.00" arrivalLane="4o_0" arrivalPos="492.80" arrivalSpeed="11.03" duration="146.00" routeLength="989.90" waitingTime="48.00" waitingCount="2" stopTime="0.00" timeLoss="74.99" rerouteNo="0" devices="tripinfo_SN_136" vType="truck" speedFactor="1.00" vaporized=""/>
    <tripinfo id="WE_173" depart="173.00" departLane="1i_0" departPos="4.10" departSpeed="0.00" departDelay="0.00" arrival="282.00" arrivalLane="2o_0" arrivalPos="492.80" arrivalSpeed="10.80" duration="109.00" routeLength="995.90" waitingTime="20.00" waitingCount="1" stopTime="0.00" timeLoss="42.09" rerouteNo="0" devices="tripinfo_WE_173" vType="car" speedFactor="1.06" vaporized=""/>
    <tripinfo id="WE_167" depart="167.00" departLane="1i_0" departPos="4.10" departSpeed="0.00" departDelay="0.00" arrival="284.00" arrivalLane="3o_0" arrivalPos="492.80" arrivalSpeed="9.57" duration="117.00" routeLength="990.53" waitingTime="21.00" waitingCount="2" stopTime="0.00" timeLoss="44.39" rerouteNo="0" devices="tripinfo_WE_167" vType="car" speedFactor="0.97" vaporized=""/>
    <tripinfo id="WE_188" depart="188.00" departLane="1i_0" departPos="4.10" departSpeed="0.00" departDelay="0.00" arrival="288.00" arrivalLane="2o_0" arrivalPos="492.80" arrivalSpeed="10.80" duration="100.00" routeLength="995.90" waitingTime="12.00" waitingCount="1" stopTime="0.00" timeLoss="27.81" rerouteNo="0" devices="tripinfo_WE_188" vType="car" speedFactor="0.98" vaporized=""/>
    <tripinfo id="NS_168" depart="168.00" departLane="2i_0" departPos="4.10" departSpeed="0.00" departDelay="0.00" arrival="289.00" arrivalLane="1o_0" arrivalPos="492.80" arrivalSpeed="9.18" duration="121.00" routeLength="995.90" waitingTime="29.00" waitingCount="2" stopTime="0.00" timeLoss="45.18" rerouteNo="0" devices="tripinfo_NS_168" vType="car" speedFactor="0.94" vaporized=""/>
    <tripinfo id="WE_189" depart="191.00" departLane="1i_0" departPos="4.10" departSpeed="0.00" departDelay="2.00" arrival="290.00" arrivalLane="3o_0" arrivalPos="492.80" arrivalSpeed="10.88" duration="99.00" routeLength="990.53" waitingTime="11.00" waitingCount="1" stopTime="0.00" timeLoss="29.14" rerouteNo="0" devices="tripinfo_WE_189" vType="car" speedFactor="1.01" vaporized=""/>
    <tripinfo id="WE_195" depart="195.00" departLane="1i_0" departPos="4.10" departSpeed="0.00" departDelay="0.00" arrival="290.00" arrivalLane="2o_0" arrivalPos="492.80" arrivalSpeed="11.84" duration="95.00" routeLength="995.90" waitingTime="9.00" waitingCount="1" stopTime="0.00" timeLoss="29.45" rerouteNo="0" devices="tripinfo_WE_195" vType="car" speedFactor="1.09" vaporized=""/>