<?xml version="1.0" encoding="UTF-8"?>

<!-- generated on 2024-05-05 23:14:11 by Eclipse SUMO sumo Version 1.19.0
<configuration xmlns:xsi="http://www.w3.org/2001/XMLSchema-instance" xsi:noNamespaceSchemaLocation="http://sumo.dlr.de/xsd/sumoConfiguration.xsd">

    <input>
        <net-file value="twoone.net.xml"/>
        <route-files value="route_gen.rou.xml"/>
    </input>

    <output>
        <tripinfo-output value="tripinfo_epi497.xml"/>
    </output>

    <report>
        <no-warnings value="true"/>
    </report>

    <traci_server>
        <remote-port value="48783"/>
    </traci_server>

</configuration>
-->

<tripinfos xmlns:xsi="http://www.w3.org/2001/XMLSchema-instance" xsi:noNamespaceSchemaLocation="http://sumo.dlr.de/xsd/tripinfo_file.xsd">
    <tripinfo id="NS_3" depart="3.00" departLane="2i_0" departPos="4.10" departSpeed="0.00" departDelay="0.00" arrival="78.00" arrivalLane="1o_0" arrivalPos="492.80" arrivalSpeed="11.05" duration="75.00" routeLength="995.90" waitingTime="0.00" waitingCount="0" stopTime="0.00" timeLoss="8.30" rerouteNo="0" devices="tripinfo_NS_3" vType="car" speedFactor="1.06" vaporized=""/>
    <tripinfo id="SN_9" depart="9.00" departLane="3i_0" departPos="4.10" departSpeed="0.00" departDelay="0.00" arrival="88.00" arrivalLane="4o_0" arrivalPos="492.80" arrivalSpeed="11.81" duration="79.00" routeLength="995.90" waitingTime="1.00" waitingCount="1" stopTime="0.00" timeLoss="13.80" rerouteNo="0" devices="tripinfo_SN_9" vType="car" speedFactor="1.08" vaporized=""/>
    <tripinfo id="NS_7" depart="7.00" departLane="2i_0" departPos="4.10" departSpeed="0.00" departDelay="0.00" arrival="92.00" arrivalLane="3o_0" arrivalPos="492.80" arrivalSpeed="10.05" duration="85.00" routeLength="995.70" waitingTime="0.00" waitingCount="0" stopTime="0.00" timeLoss="9.49" rerouteNo="0" devices="tripinfo_NS_7" vType="car" speedFactor="0.94" vaporized=""/>
    <tripinfo id="NS_10" depart="10.00" departLane="2i_0" departPos="4.10" departSpeed="0.00" departDelay="0.00" arrival="93.00" arrivalLane="4o_0" arrivalPos="492.80" arrivalSpeed="10.16" duration="83.00" routeLength="990.53" waitingTime="0.00" waitingCount="0" stopTime="0.00" timeLoss="14.81" rerouteNo="0" devices="tripinfo_NS_10" vType="car" speedFactor="1.03" vaporized=""/>
    <tripinfo id="WE_14" depart="14.00" departLane="1i_0" departPos="4.10" departSpeed="0.00" departDelay="0.00" arrival="99.00" arrivalLane="4o_0" arrivalPos="492.80" arrivalSpeed="11.06" duration="85.00" routeLength="995.70" waitingTime="0.00" waitingCount="0" stopTime="0.00" timeLoss="16.74" rerouteNo="0" devices="tripinfo_WE_14" vType="car" speedFactor="1.05" vaporized=""/>
    <tripinfo id="NS_16" depart="16.00" departLane="2i_0" departPos="4.10" departSpeed="0.00" departDelay="0.00" arrival="101.00" arrivalLane="1o_0" arrivalPos="492.80" arrivalSpeed="9.67" duration="85.00" routeLength="995.90" waitingTime="0.00" waitingCount="0" stopTime="0.00" timeLoss="9.09" rerouteNo="0" devices="tripinfo_NS_16" vType="car" speedFactor="0.94" vaporized=""/>
    <tripinfo id="NS_22" depart="22.00" departLane="2i_0" departPos="10.10" departSpeed="0.00" departDelay="0.00" arrival="102.00" arrivalLane="4o_0" arrivalPos="492.80" arrivalSpeed="11.12" duration="80.00" routeLength="984.53" waitingTime="0.00" waitingCount="0" stopTime="0.00" timeLoss="12.03" rerouteNo="0" devices="tripinfo_NS_22" vType="truck" speedFactor="1.05" vaporized=""/>
    <tripinfo id="WE_11" depart="11.00" departLane="1i_0" departPos="4.10" departSpeed="0.00" departDelay="0.00" arrival="104.00" arrivalLane="2o_0" arrivalPos="492.80" arrivalSpeed="8.46" duration="93.00" routeLength="995.90" waitingTime="0.00" waitingCount="0" stopTime="0.00" timeLoss="8.07" rerouteNo="0" devices="tripinfo_WE_11" vType="car" speedFactor="0.83" vaporized=""/>
    <tripinfo id="NS_23" depart="26.00" departLane="2i_0" departPos="4.10" departSpeed="0.00" departDelay="3.00" arrival="107.00" arrivalLane="4o_0" arrivalPos="492.80" arrivalSpeed="10.78" duration="81.00" routeLength="990.53" waitingTime="0.00" waitingCount="0" stopTime="0.00" timeLoss="11.64" rerouteNo="0" devices="tripinfo_NS_23" vType="car" speedFactor="1.03" vaporized=""/>
    <tripinfo id="WE_18" depart="18.00" departLane="1i_0" departPos="4.10" departSpeed="0.00" departDelay="0.00" arrival="119.00" arrivalLane="4o_0" arrivalPos="492.80" arrivalSpeed="9.02" duration="101.00" routeLength="995.70" waitingTime="5.00" waitingCount="1" stopTime="0.00" timeLoss="18.59" rerouteNo="0" devices="tripinfo_WE_18" vType="car" speedFactor="0.86" vaporized=""/>
    <tripinfo id="WE_50" depart="50.00" departLane="1i_0" departPos="4.10" departSpeed="0.00" departDelay="0.00" arrival="134.00" arrivalLane="2o_0" arrivalPos="492.80" arrivalSpeed="9.89" duration="84.00" routeLength="995.90" waitingTime="0.00" waitingCount="0" stopTime="0.00" timeLoss="7.67" rerouteNo="0" devices="tripinfo_WE_50" vType="car" speedFactor="0.93" vaporized=""/>
    <tripinfo id="WE_54" depart="54.00" departLane="1i_0" departPos="4.10" departSpeed="0.00" departDelay="0.00" arrival="138.00" arrivalLane="2o_0" arrivalPos="492.80" arrivalSpeed="9.15" duration="84.00" routeLength="995.90" waitingTime="0.00" waitingCount="0" stopTime="0.00" timeLoss="7.90" rerouteNo="0" devices="tripinfo_WE_54" vType="car" speedFactor="0.94" vaporized=""/>
    <tripinfo id="WE_55" depart="56.00" departLane="1i_0" departPos="4.10" departSpeed="0.00" departDelay="1.00" arrival="141.00" arrivalLane="4o_0" arrivalPos="492.80" arrivalSpeed="11.96" duration="85.00" routeLength="995.70" waitingTime="5.00" waitingCount="1" stopTime="0.00" timeLoss="23.74" rerouteNo="0" devices="tripinfo_WE_55" vType="car" speedFactor="1.16" vaporized=""/>
    <tripinfo id="NS_49" depart="49.00" departLane="2i_0" departPos="4.10" departSpeed="0.00" departDelay="0.00" arrival="142.00" arrivalLane="3o_0" arrivalPos="492.80" arrivalSpeed="10.89" duration="93.00" routeLength="995.70" waitingTime="9.00" waitingCount="1" stopTime="0.00" timeLoss="21.18" rerouteNo="0" devices="tripinfo_NS_49" vType="car" speedFactor="0.99" vaporized=""/>
    <tripinfo id="NS_60" depart="60.00" departLane="2i_0" departPos="4.10" departSpeed="0.00" departDelay="0.00" arrival="145.00" arrivalLane="1o_0" arrivalPos="492.80" arrivalSpeed="9.67" duration="85.00" routeLength="995.90" waitingTime="0.00" waitingCount="0" stopTime="0.00" timeLoss="11.90" rerouteNo="0" devices="tripinfo_NS_60" vType="car" speedFactor="0.97" vaporized=""/>
    <tripinfo id="WE_57" depart="59.00" departLane="1i_0" departPos="4.10" departSpeed="0.00" departDelay="2.00" arrival="148.00" arrivalLane="2o_0" arrivalPos="492.80" arrivalSpeed="10.43" duration="89.00" routeLength="995.90" waitingTime="3.00" waitingCount="1" stopTime="0.00" timeLoss="18.74" rerouteNo="0" devices="tripinfo_WE_57" vType="car" speedFactor="1.02" vaporized=""/>
    <tripinfo id="WE_71" depart="71.00" departLane="1i_0" departPos="4.10" departSpeed="0.00" departDelay="0.00" arrival="158.00" arrivalLane="2o_0" arrivalPos="492.80" arrivalSpeed="9.51" duration="87.00" routeLength="995.90" waitingTime="0.00" waitingCount="0" stopTime="0.00" timeLoss="9.67" rerouteNo="0" devices="tripinfo_WE_71" vType="car" speedFactor="0.92" vaporized=""/>
    <tripinfo id="NS_79" depart="79.00" departLane="2i_0" departPos="4.10" departSpeed="0.00" departDelay="0.00" arrival="165.00" arrivalLane="3o_0" arrivalPos="492.80" arrivalSpeed="9.53" duration="86.00" routeLength="995.70" waitingTime="0.00" waitingCount="0" stopTime="0.00" timeLoss="9.75" rerouteNo="0" devices="tripinfo_NS_79" vType="car" speedFactor="0.93" vaporized=""/>
    <tripinfo id="NS_84" depart="84.00" departLane="2i_0" departPos="4.10" departSpeed="0.00" departDelay="0.00" arrival="167.00" arrivalLane="3o_0" arrivalPos="492.80" arrivalSpeed="10.91" duration="83.00" routeLength="995.70" waitingTime="0.00" waitingCount="0" stopTime="0.00" timeLoss="12.14" rerouteNo="0" devices="tripinfo_NS_84" vType="car" speedFactor="1.01" vaporized=""/>
    <tripinfo id="WE_112" depart="112.00" departLane="1i_0" departPos="4.10" departSpeed="0.00" departDelay="0.00" arrival="184.00" arrivalLane="3o_0" arrivalPos="492.80" arrivalSpeed="11.45" duration="72.00" routeLength="990.53" waitingTime="0.00" waitingCount="0" stopTime="0.00" timeLoss="7.84" rerouteNo="0" devices="tripinfo_WE_112" vType="car" speedFactor="1.10" vaporized=""/>
    <tripinfo id="NS_120" depart="120.00" departLane="2i_0" departPos="4.10" departSpeed="0.00" departDelay="0.00" arrival="203.00" arrivalLane="3o_0" arrivalPos="492.80" arrivalSpeed="10.46" duration="83.00" routeLength="995.70" waitingTime="0.00" waitingCount="0" stopTime="0.00" timeLoss="8.68" rerouteNo="0" devices="tripinfo_NS_120" vType="car" speedFactor="0.96" vaporized=""/>
    <tripinfo id="WE_126" depart="126.00" departLane="1i_0" departPos="4.10" departSpeed="0.00" departDelay="0.00" arrival="205.00" arrivalLane="3o_0" arrivalPos="492.80" arrivalSpeed="11.41" duration="79.00" routeLength="990.53" waitingTime="0.00" waitingCount="0" stopTime="0.00" timeLoss="10.76" rerouteNo="0" devices="tripinfo_WE_126" vType="car" speedFactor="1.04" vaporized=""/>
    <tripinfo id="NS_130" depart="130.00" departLane="2i_0" departPos="4.10" departSpeed="0.00" departDelay="0.00" arrival="206.00" arrivalLane="3o_0" arrivalPos="492.80" arrivalSpeed="11.79" duration="76.00" routeLength="995.70" waitingTime="0.00" waitingCount="0" stopTime="0.00" timeLoss="10.91" rerouteNo="0" devices="tripinfo_NS_130" vType="car" speedFactor="1.09" vaporized=""/>
    <tripinfo id="WE_148" depart="148.00" departLane="1i_0" departPos="4.10" departSpeed="0.00" departDelay="0.00" arrival="237.00" arrivalLane="3o_0" arrivalPos="492.80" arrivalSpeed="8.53" duration="89.00" routeLength="990.53" waitingTime="0.00" waitingCount="0" stopTime="0.00" timeLoss="8.68" rerouteNo="0" devices="tripinfo_WE_148" vType="car" speedFactor="0.88" vaporized=""/>
    <tripinfo id="NS_159" depart="159.00" departLane="2i_0" departPos="4.10" departSpeed="0.00" departDelay="0.00" arrival="237.00" arrivalLane="1o_0" arrivalPos="492.80" arrivalSpeed="10.44" duration="78.00" routeLength="995.90" waitingTime="0.00" waitingCount="0" stopTime="0.00" timeLoss="7.16" rerouteNo="0" devices="tripinfo_NS_159" vType="car" speedFactor="1.00" vaporized=""/>
    <tripinfo id="WE_153" depart="153.00" departLane="1i_0" departPos="4.10" departSpeed="0.00" departDelay="0.00" arrival="239.00" arrivalLane="3o_0" arrivalPos="492.80" arrivalSpeed="12.10" duration="86.00" routeLength="990.53" waitingTime="0.00" waitingCount="0" stopTime="0.00" timeLoss="25.12" rerouteNo="0" devices="tripinfo_WE_153" vType="car" speedFactor="1.17" vaporized=""/>
    <tripinfo id="WE_159" depart="159.00" departLane="1i_0" departPos="4.10" departSpeed="0.00" departDelay="0.00" arrival="241.00" arrivalLane="3o_0" arrivalPos="492.80" arrivalSpeed="11.30" duration="82.00" routeLength="990.53" waitingTime="0.00" waitingCount="0" stopTime="0.00" timeLoss="17.07" rerouteNo="0" devices="tripinfo_WE_159" vType="car" speedFactor="1.10" vaporized=""/>
    <tripinfo id="NS_168" depart="168.00" departLane="2i_0" departPos="4.10" departSpeed="0.00" departDelay="0.00" arrival="246.00" arrivalLane="4o_0" arrivalPos="492.80" arrivalSpeed="10.37" duration="78.00" routeLength="990.53" waitingTime="0.00" waitingCount="0" stopTime="0.00" timeLoss="8.44" rerouteNo="0" devices="tripinfo_NS_168" vType="car" speedFactor="1.02" vaporized=""/>
    <tripinfo id="WE_167" depart="167.00" departLane="1i_0" departPos="4.10" departSpeed="0.00" departDelay="0.00" arrival="256.00" arrivalLane="4o_0" arrivalPos="492.80" arrivalSpeed="9.86" duration="89.00" routeLength="995.70" waitingTime="0.00" waitingCount="0" stopTime="0.00" timeLoss="9.64" rerouteNo="0" devices="tripinfo_WE_167" vType="car" speedFactor="0.90" vaporized=""/>
    <tripinfo id="NS_183" depart="183.00" departLane="2i_0" departPos="4.10" departSpeed="0.00" departDelay="0.00" arrival="257.00" arrivalLane="4o_0" arrivalPos="492.80" arrivalSpeed="11.33" duration="74.00" routeLength="990.53" waitingTime="0.00" waitingCount="0" stopTime="0.00" timeLoss="8.94" rerouteNo="0" devices="tripinfo_NS_183" vType="car" speedFactor="1.08" vaporized=""/>
    <tripinfo id="NS_189" depart="189.00" departLane="2i_0" departPos="4.10" departSpeed="0.00" departDelay="0.00" arrival="263.00" arrivalLane="3o_0" arrivalPos="492.80" arrivalSpeed="12.10" duration="74.00" routeLength="995.70" waitingTime="0.00" waitingCount="0" stopTime="0.00" timeLoss="10.17" rerouteNo="0" devices="tripinfo_NS_189" vType="car" speedFactor="1.12" vaporized=""/>
    <tripinfo id="WE_190" depart="190.00" departLane="1i_0" departPos="10.10" departSpeed="0.00" departDelay="0.00" arrival="271.00" arrivalLane="3o_0" arrivalPos="492.80" arrivalSpeed="10.66" duration="81.00" routeLength="984.53" waitingTime="0.00" waitingCount="0" stopTime="0.00" timeLoss="11.46" rerouteNo="0" devices="tripinfo_WE_190" vType="truck" speedFactor="1.01" vaporized=""/>
    <tripinfo id="WE_191" depart="194.00" departLane="1i_0" departPos="4.10" departSpeed="0.00" departDelay="3.00" arrival="277.00" arrivalLane="3o_0" arrivalPos="492.80" arrivalSpeed="10.91" duration="83.00" routeLength="990.53" waitingTime="0.00" waitingCount="0" stopTime="0.00" timeLoss="10.96" rerouteNo="0" devices="tripinfo_WE_191" vType="car" speedFactor="0.99" vaporized=""/>
    <tripinfo id="NS_195" depart="195.00" departLane="2i_0" departPos="4.10" departSpeed="0.00" departDelay="0.00" arrival="283.00" arrivalLane="4o_0" arrivalPos="492.80" arrivalSpeed="8.81" duration="88.00" routeLength="990.53" waitingTime="0.00" waitingCount="0" stopTime="0.00" timeLoss="8.11" rerouteNo="0" devices="tripinfo_NS_195" vType="car" speedFactor="0.88" vaporized=""/>
    <tripinfo id="WE_200" depart="200.00" departLane="1i_0" departPos="4.10" departSpeed="0.00" departDelay="0.00" arrival="287.00" arrivalLane="4o_0" arrivalPos="492.80" arrivalSpeed="9.78" duration="87.00" routeLength="995.70" waitingTime="0.00" waitingCount="0" stopTime="0.00" timeLoss="9.64" rerouteNo="0" devices="tripinfo_WE_200" vType="car" speedFactor="0.91" vaporized=""/>
    <tripinfo id="NS_203" depart="203.00" departLane="2i_0" departPos="10.10" departSpeed="0.00" departDelay="0.00" arrival="288.00" arrivalLane="3o_0" arrivalPos="492.80" arrivalSpeed="11.06" duration="85.00" routeLength="989.70" waitingTime="0.00" waitingCount="0" stopTime="0.00" timeLoss="15.35" rerouteNo="0" devices="tripinfo_NS_203" vType="truck" speedFactor="1.01" vaporized=""/>
    <tripinfo id="NS_211" depart="211.00" departLane="2i_0" departPos="4.10" departSpeed="0.00" departDelay="0.00" arrival="296.00" arrivalLane="1o_0" arrivalPos="492.80" arrivalSpeed="9.73" duration="85.00" routeLength="995.90" waitingTime="0.00" waitingCount="0" stopTime="0.00" timeLoss="9.00" rerouteNo="0" devices="tripinfo_NS_211" vType="car" speedFactor="0.94" vaporized=""/>
    <tripinfo id="NS_220" depart="220.00" departLane="2i_0" departPos="4.10" departSpeed="0.00" departDelay="0.00" arrival="298.00" arrivalLane="3o_0" arrivalPos="492.80" arrivalSpeed="10.63" duration="78.00" routeLength="995.70" waitingTime="0.00" waitingCount="0" stopTime="0.00" timeLoss="10.46" rerouteNo="0" devices="tripinfo_NS_220" vType="car" speedFactor="1.06" vaporized=""/>
    <tripinfo id="NS_259" depart="259.00" departLane="2i_0" departPos="4.10" departSpeed="0.00" departDelay="0.00" arrival="338.00" arrivalLane="1o_0" arrivalPos="492.80" arrivalSpeed="10.04" duration="79.00" routeLength="995.90" waitingTime="0.00" waitingCount="0" stopTime="0.00" timeLoss="7.97" rerouteNo="0" devices="tripinfo_NS_259" vType="car" speedFactor="1.00" vaporized=""/>
    <tripinfo id="NS_261" depart="263.00" departLane="2i_0" departPos="10.10" departSpeed="0.00" departDelay="2.00" arrival="346.00" arrivalLane="1o_0" arrivalPos="492.80" arrivalSpeed="11.10" duration="83.00" routeLength="989.90" waitingTime="0.00" waitingCount="0" stopTime="0.00" timeLoss="12.47" rerouteNo="0" devices="tripinfo_NS_261" vType="truck" speedFactor="1.01" vaporized=""/>
    <tripinfo id="NS_262" depart="267.00" departLane="2i_0" departPos="4.10" departSpeed="0.00" departDelay="5.00" arrival="352.00" arrivalLane="1o_0" arrivalPos="492.80" arrivalSpeed="10.48" duration="85.00" routeLength="995.90" waitingTime="0.00" waitingCount="0" stopTime="0.00" timeLoss="11.61" rerouteNo="0" devices="tripinfo_NS_262" vType="car" speedFactor="0.97" vaporized=""/>
    <tripinfo id="NS_264" depart="270.00" departLane="2i_0" departPos="4.10" departSpeed="0.00" departDelay="6.00" arrival="354.00" arrivalLane="1o_0" arrivalPos="492.80" arrivalSpeed="12.12" duration="84.00" routeLength="995.90" waitingTime="0.00" waitingCount="0" stopTime="0.00" timeLoss="21.55" rerouteNo="0" devices="tripinfo_NS_264" vType="car" speedFactor="1.15" vaporized=""/>
    <tripinfo id="WE_275" depart="276.00" departLane="1i_0" departPos="4.10" departSpeed="0.00" departDelay="1.00" arrival="356.00" arrivalLane="2o_0" arrivalPos="492.80" arrivalSpeed="9.94" duration="80.00" routeLength="995.90" waitingTime="0.00" waitingCount="0" stopTime="0.00" timeLoss="9.42" rerouteNo="0" devices="tripinfo_WE_275" vType="car" speedFactor="1.00" vaporized=""/>
    <tripinfo id="WE_273" depart="273.00" departLane="1i_0" departPos="4.10" departSpeed="0.00" departDelay="0.00" arrival="357.00" arrivalLane="4o_0" arrivalPos="492.80" arrivalSpeed="10.17" duration="84.00" routeLength="995.70" waitingTime="0.00" waitingCount="0" stopTime="0.00" timeLoss="11.26" rerouteNo="0" devices="tripinfo_WE_273" vType="car" speedFactor="0.98" vaporized=""/>
    <tripinfo id="WE_280" depart="280.00" departLane="1i_0" departPos="4.10" departSpeed="0.00" departDelay="0.00" arrival="358.00" arrivalLane="2o_0" arrivalPos="492.80" arrivalSpeed="10.03" duration="78.00" routeLength="995.90" waitingTime="0.00" waitingCount="0" stopTime="0.00" timeLoss="8.38" rerouteNo="0" devices="tripinfo_WE_280" vType="car" speedFactor="1.02" vaporized=""/>
    <tripinfo id="NS_279" depart="279.00" departLane="2i_0" departPos="4.10" departSpeed="0.00" departDelay="0.00" arrival="362.00" arrivalLane="3o_0" arrivalPos="492.80" arrivalSpeed="10.48" duration="83.00" routeLength="995.70" waitingTime="0.00" waitingCount="0" stopTime="0.00" timeLoss="13.27" rerouteNo="0" devices="tripinfo_NS_279" vType="car" speedFactor="1.02" vaporized=""/>
    <tripinfo id="NS_281" depart="282.00" departLane="2i_0" departPos="4.10" departSpeed="0.00" departDelay="1.00" arrival="370.00" arrivalLane="4o_0" arrivalPos="492.80" arrivalSpeed="9.83" duration="88.00" routeLength="990.53" waitingTime="0.00" waitingCount="0" stopTime="0.00" timeLoss="8.71" rerouteNo="0" devices="tripinfo_NS_281" vType="car" speedFactor="0.89" vaporized=""/>
    <tripinfo id="WE_300" depart="300.00" departLane="1i_0" departPos="4.10" departSpeed="0.00" departDelay="0.00" arrival="374.00" arrivalLane="4o_0" arrivalPos="492.80" arrivalSpeed="11.49" duration="74.00" routeLength="995.70" waitingTime="0.00" waitingCount="0" stopTime="0.00" timeLoss="10.75" rerouteNo="0" devices="tripinfo_WE_300" vType="car" speedFactor="1.12" vaporized=""/>
    <tripinfo id="WE_301" depart="303.00" departLane="1i_0" departPos="4.10" departSpeed="0.00" departDelay="2.00" arrival="380.00" arrivalLane="4o_0" arrivalPos="492.80" arrivalSpeed="10.78" duration="77.00" routeLength="995.70" waitingTime="0.00" waitingCount="0" stopTime="0.00" timeLoss="10.37" rerouteNo="0" devices="tripinfo_WE_301" vType="car" speedFactor="1.06" vaporized=""/>
    <tripinfo id="WE_311" depart="311.00" departLane="1i_0" departPos="4.10" departSpeed="0.00" departDelay="0.00" arrival="393.00" arrivalLane="2o_0" arrivalPos="492.80" arrivalSpeed="10.46" duration="82.00" routeLength="995.90" waitingTime="0.00" waitingCount="0" stopTime="0.00" timeLoss="8.14" rerouteNo="0" devices="tripinfo_WE_311" vType="car" speedFactor="0.97" vaporized=""/>
    <tripinfo id="NS_311" depart="311.00" departLane="2i_0" departPos="4.10" departSpeed="0.00" departDelay="0.00" arrival="396.00" arrivalLane="3o_0" arrivalPos="492.80" arrivalSpeed="9.54" duration="85.00" routeLength="995.70" waitingTime="0.00" waitingCount="0" stopTime="0.00" timeLoss="10.38" rerouteNo="0" devices="tripinfo_NS_311" vType="car" speedFactor="0.95" vaporized=""/>
    <tripinfo id="NS_326" depart="326.00" departLane="2i_0" departPos="4.10" departSpeed="0.00" departDelay="0.00" arrival="400.00" arrivalLane="1o_0" arrivalPos="492.80" arrivalSpeed="10.59" duration="74.00" routeLength="995.90" waitingTime="0.00" waitingCount="0" stopTime="0.00" timeLoss="7.74" rerouteNo="0" devices="tripinfo_NS_326" vType="car" speedFactor="1.06" vaporized=""/>
    <tripinfo id="NS_315" depart="315.00" departLane="2i_0" departPos="4.10" departSpeed="0.00" departDelay="0.00" arrival="404.00" arrivalLane="3o_0" arrivalPos="492.80" arrivalSpeed="9.06" duration="89.00" routeLength="995.70" waitingTime="0.00" waitingCount="0" stopTime="0.00" timeLoss="10.02" rerouteNo="0" devices="tripinfo_NS_315" vType="car" speedFactor="0.89" vaporized=""/>
    <tripinfo id="NS_354" depart="354.00" departLane="2i_0" departPos="4.10" departSpeed="0.00" departDelay="0.00" arrival="425.00" arrivalLane="3o_0" arrivalPos="492.80" arrivalSpeed="12.72" duration="71.00" routeLength="995.70" waitingTime="0.00" waitingCount="0" stopTime="0.00" timeLoss="10.24" rerouteNo="0" devices="tripinfo_NS_354" vType="car" speedFactor="1.18" vaporized=""/>
    <tripinfo id="NS_357" depart="358.00" departLane="2i_0" departPos="4.10" departSpeed="0.00" departDelay="1.00" arrival="438.00" arrivalLane="4o_0" arrivalPos="492.80" arrivalSpeed="10.98" duration="80.00" routeLength="990.53" waitingTime="0.00" waitingCount="0" stopTime="0.00" timeLoss="8.17" rerouteNo="0" devices="tripinfo_NS_357" vType="car" speedFactor="0.99" vaporized=""/>
    <tripinfo id="WE_354" depart="354.00" departLane="1i_0" departPos="4.10" departSpeed="0.00" departDelay="0.00" arrival="439.00" arrivalLane="3o_0" arrivalPos="492.80" arrivalSpeed="9.97" duration="85.00" routeLength="990.53" waitingTime="0.00" waitingCount="0" stopTime="0.00" timeLoss="8.51" rerouteNo="0" devices="tripinfo_WE_354" vType="car" speedFactor="0.92" vaporized=""/>
    <tripinfo id="SN_47" depart="47.00" departLane="3i_0" departPos="4.10" departSpeed="0.00" departDelay="0.00" arrival="440.00" arrivalLane="4o_0" arrivalPos="492.80" arrivalSpeed="11.18" duration="393.00" routeLength="981.50" waitingTime="320.00" waitingCount="2" stopTime="0.00" timeLoss="330.95" rerouteNo="0" devices="tripinfo_SN_47" vType="car" speedFactor="1.12" vaporized=""/>
    <tripinfo id="EW_8" depart="8.00" departLane="4i_0" departPos="10.10" departSpeed="0.00" departDelay="0.00" arrival="443.00" arrivalLane="2o_0" arrivalPos="492.80" arrivalSpeed="10.81" duration="435.00" routeLength="975.50" waitingTime="351.00" waitingCount="2" stopTime="0.00" timeLoss="366.46" rerouteNo="0" devices="tripinfo_EW_8" vType="truck" speedFactor="1.01" vaporized=""/>
    <tripinfo id="NS_359" depart="361.00" departLane="2i_0" departPos="4.10" departSpeed="0.00" departDelay="2.00" arrival="445.00" arrivalLane="3o_0" arrivalPos="492.80" arrivalSpeed="9.69" duration="84.00" routeLength="995.70" waitingTime="0.00" waitingCount="0" stopTime="0.00" timeLoss="8.90" rerouteNo="0" devices="tripinfo_NS_359" vType="car" speedFactor="0.94" vaporized=""/>
    <tripinfo id="NS_362" depart="363.00" departLane="2i_0" departPos="4.10" departSpeed="0.00" departDelay="1.00" arrival="447.00" arrivalLane="3o_0" arrivalPos="492.80" arrivalSpeed="11.41" duration="84.00" routeLength="995.70" waitingTime="0.00" waitingCount="0" stopTime="0.00" timeLoss="15.07" rerouteNo="0" devices="tripinfo_NS_362" vType="car" speedFactor="1.03" vaporized=""/>
    <tripinfo id="WE_371" depart="371.00" departLane="1i_0" departPos="10.10" departSpeed="0.00" departDelay="0.00" arrival="452.00" arrivalLane="3o_0" arrivalPos="492.80" arrivalSpeed="10.89" duration="81.00" routeLength="984.53" waitingTime="0.00" waitingCount="0" stopTime="0.00" timeLoss="12.47" rerouteNo="0" devices="tripinfo_WE_371" vType="truck" speedFactor="1.03" vaporized=""/>
    <tripinfo id="WE_385" depart="385.00" departLane="1i_0" departPos="4.10" departSpeed="0.00" departDelay="0.00" arrival="480.00" arrivalLane="2o_0" arrivalPos="492.80" arrivalSpeed="9.06" duration="95.00" routeLength="995.90" waitingTime="0.00" waitingCount="0" stopTime="0.00" timeLoss="8.58" rerouteNo="0" devices="tripinfo_WE_385" vType="car" speedFactor="0.82" vaporized=""/>
    <tripinfo id="WE_392" depart="392.00" departLane="1i_0" departPos="4.10" departSpeed="0.00" departDelay="0.00" arrival="482.00" arrivalLane="2o_0" arrivalPos="492.80" arrivalSpeed="12.08" duration="90.00" routeLength="995.90" waitingTime="0.00" waitingCount="0" stopTime="0.00" timeLoss="25.98" rerouteNo="0" devices="tripinfo_WE_392" vType="car" speedFactor="1.12" vaporized=""/>
    <tripinfo id="WE_400" depart="400.00" departLane="1i_0" departPos="10.10" departSpeed="0.00" departDelay="0.00" arrival="486.00" arrivalLane="4o_0" arrivalPos="492.80" arrivalSpeed="10.77" duration="86.00" routeLength="989.70" waitingTime="0.00" waitingCount="0" stopTime="0.00" timeLoss="16.61" rerouteNo="0" devices="tripinfo_WE_400" vType="truck" speedFactor="1.02" vaporized=""/>
    <tripinfo id="WE_413" depart="413.00" departLane="1i_0" departPos="4.10" departSpeed="0.00" departDelay="0.00" arrival="491.00" arrivalLane="3o_0" arrivalPos="492.80" arrivalSpeed="11.20" duration="78.00" routeLength="990.53" waitingTime="0.00" waitingCount="0" stopTime="0.00" timeLoss="9.17" rerouteNo="0" devices="tripinfo_WE_413" vType="car" speedFactor="1.04" vaporized=""/>
    <tripinfo id="WE_406" depart="406.00" departLane="1i_0" departPos="4.10" departSpeed="0.00" departDelay="0.00" arrival="493.00" arrivalLane="4o_0" arrivalPos="492.80" arrivalSpeed="9.94" duration="87.00" routeLength="995.70" waitingTime="0.00" waitingCount="0" stopTime="0.00" timeLoss="13.00" rerouteNo="0" devices="tripinfo_WE_406" vType="car" speedFactor="0.96" vaporized=""/>
    <tripinfo id="NS_433" depart="433.00" departLane="2i_0" departPos="4.10" departSpeed="0.00" departDelay="0.00" arrival="506.00" arrivalLane="3o_0" arrivalPos="492.80" arrivalSpeed="11.66" duration="73.00" routeLength="995.70" waitingTime="0.00" waitingCount="0" stopTime="0.00" timeLoss="10.84" rerouteNo="0" devices="tripinfo_NS_433" vType="car" speedFactor="1.14" vaporized=""/>
    <tripinfo id="NS_439" depart="439.00" departLane="2i_0" departPos="4.10" departSpeed="0.00" departDelay="0.00" arrival="515.00" arrivalLane="4o_0" arrivalPos="492.80" arrivalSpeed="11.51" duration="76.00" routeLength="990.53" waitingTime="0.00" waitingCount="0" stopTime="0.00" timeLoss="8.19" rerouteNo="0" devices="tripinfo_NS_439" vType="car" speedFactor="1.04" vaporized=""/>
    <tripinfo id="WE_438" depart="438.00" departLane="1i_0" departPos="4.10" departSpeed="0.00" departDelay="0.00" arrival="519.00" arrivalLane="4o_0" arrivalPos="492.80" arrivalSpeed="10.74" duration="81.00" routeLength="995.70" waitingTime="0.00" waitingCount="0" stopTime="0.00" timeLoss="10.49" rerouteNo="0" devices="tripinfo_WE_438" vType="car" speedFactor="1.00" vaporized=""/>
    <tripinfo id="WE_445" depart="445.00" departLane="1i_0" departPos="4.10" departSpeed="0.00" departDelay="0.00" arrival="523.00" arrivalLane="2o_0" arrivalPos="492.80" arrivalSpeed="10.65" duration="78.00" routeLength="995.90" waitingTime="0.00" waitingCount="0" stopTime="0.00" timeLoss="7.61" rerouteNo="0" devices="tripinfo_WE_445" vType="car" speedFactor="1.00" vaporized=""/>
    <tripinfo id="WE_451" depart="451.00" departLane="1i_0" departPos="4.10" departSpeed="0.00" departDelay="0.00" arrival="536.00" arrivalLane="3o_0" arrivalPos="492.80" arrivalSpeed="9.85" duration="85.00" routeLength="990.53" waitingTime="0.00" waitingCount="0" stopTime="0.00" timeLoss="8.43" rerouteNo="0" devices="tripinfo_WE_451" vType="car" speedFactor="0.93" vaporized=""/>
    <tripinfo id="WE_457" depart="457.00" departLane="1i_0" departPos="4.10" departSpeed="0.00" departDelay="0.00" arrival="543.00" arrivalLane="3o_0" arrivalPos="492.80" arrivalSpeed="8.93" duration="86.00" routeLength="990.53" waitingTime="0.00" waitingCount="0" stopTime="0.00" timeLoss="8.61" rerouteNo="0" devices="tripinfo_WE_457" vType="car" speedFactor="0.91" vaporized=""/>
    <tripinfo id="WE_463" depart="463.00" departLane="1i_0" departPos="4.10" departSpeed="0.00" departDelay="0.00" arrival="545.00" arrivalLane="3o_0" arrivalPos="492.80" arrivalSpeed="10.94" duration="82.00" routeLength="990.53" waitingTime="0.00" waitingCount="0" stopTime="0.00" timeLoss="14.87" rerouteNo="0" devices="tripinfo_WE_463" vType="car" speedFactor="1.05" vaporized=""/>
    <tripinfo id="NS_453" depart="453.00" departLane="2i_0" departPos="4.10" departSpeed="0.00" departDelay="0.00" arrival="563.00" arrivalLane="3o_0" arrivalPos="492.80" arrivalSpeed="11.90" duration="110.00" routeLength="995.70" waitingTime="32.00" waitingCount="1" stopTime="0.00" timeLoss="46.39" rerouteNo="0" devices="tripinfo_NS_453" vType="car" speedFactor="1.12" vaporized=""/>
    <tripinfo id="NS_456" depart="456.00" departLane="2i_0" departPos="10.10" departSpeed="0.00" departDelay="0.00" arrival="568.00" arrivalLane="1o_0" arrivalPos="492.80" arrivalSpeed="11.59" duration="112.00" routeLength="989.90" waitingTime="23.00" waitingCount="1" stopTime="0.00" timeLoss="45.43" rerouteNo="0" devices="tripinfo_NS_456" vType="truck" speedFactor="1.09" vaporized=""/>
    <tripinfo id="NS_462" depart="463.00" departLane="2i_0" departPos="4.10" departSpeed="0.00" departDelay="1.00" arrival="572.00" arrivalLane="3o_0" arrivalPos="492.80" arrivalSpeed="11.43" duration="109.00" routeLength="995.70" waitingTime="21.00" waitingCount="1" stopTime="0.00" timeLoss="45.79" rerouteNo="0" devices="tripinfo_NS_462" vType="car" speedFactor="1.13" vaporized=""/>