<?xml version="1.0" encoding="UTF-8"?>

<!-- generated on 2024-05-05 22:28:43 by Eclipse SUMO sumo Version 1.19.0
<configuration xmlns:xsi="http://www.w3.org/2001/XMLSchema-instance" xsi:noNamespaceSchemaLocation="http://sumo.dlr.de/xsd/sumoConfiguration.xsd">

    <input>
        <net-file value="twoone.net.xml"/>
        <route-files value="route_gen.rou.xml"/>
    </input>

    <output>
        <tripinfo-output value="tripinfo_epi294.xml"/>
    </output>

    <report>
        <no-warnings value="true"/>
    </report>

    <traci_server>
        <remote-port value="38247"/>
    </traci_server>

</configuration>
-->

<tripinfos xmlns:xsi="http://www.w3.org/2001/XMLSchema-instance" xsi:noNamespaceSchemaLocation="http://sumo.dlr.de/xsd/tripinfo_file.xsd">
    <tripinfo id="NS_2" depart="2.00" departLane="2i_0" departPos="4.10" departSpeed="0.00" departDelay="0.00" arrival="86.00" arrivalLane="1o_0" arrivalPos="492.80" arrivalSpeed="9.53" duration="84.00" routeLength="995.90" waitingTime="0.00" waitingCount="0" stopTime="0.00" timeLoss="8.45" rerouteNo="0" devices="tripinfo_NS_2" vType="car" speedFactor="0.94" vaporized=""/>
    <tripinfo id="WE_8" depart="8.00" departLane="1i_0" departPos="4.10" departSpeed="0.00" departDelay="0.00" arrival="86.00" arrivalLane="4o_0" arrivalPos="492.80" arrivalSpeed="11.42" duration="78.00" routeLength="995.70" waitingTime="0.00" waitingCount="0" stopTime="0.00" timeLoss="8.82" rerouteNo="0" devices="tripinfo_WE_8" vType="car" speedFactor="1.03" vaporized=""/>
    <tripinfo id="EW_0" depart="0.00" departLane="4i_0" departPos="10.10" departSpeed="0.00" departDelay="0.00" arrival="90.00" arrivalLane="3o_0" arrivalPos="492.80" arrivalSpeed="10.98" duration="90.00" routeLength="989.90" waitingTime="0.00" waitingCount="0" stopTime="0.00" timeLoss="21.69" rerouteNo="0" devices="tripinfo_EW_0" vType="truck" speedFactor="1.03" vaporized=""/>
    <tripinfo id="WE_23" depart="23.00" departLane="1i_0" departPos="4.10" departSpeed="0.00" departDelay="0.00" arrival="97.00" arrivalLane="4o_0" arrivalPos="492.80" arrivalSpeed="11.52" duration="74.00" routeLength="995.70" waitingTime="0.00" waitingCount="0" stopTime="0.00" timeLoss="10.46" rerouteNo="0" devices="tripinfo_WE_23" vType="car" speedFactor="1.12" vaporized=""/>
    <tripinfo id="NS_3" depart="5.00" departLane="2i_0" departPos="10.10" departSpeed="0.00" departDelay="2.00" arrival="102.00" arrivalLane="3o_0" arrivalPos="492.80" arrivalSpeed="11.03" duration="97.00" routeLength="989.70" waitingTime="6.00" waitingCount="1" stopTime="0.00" timeLoss="26.87" rerouteNo="0" devices="tripinfo_NS_3" vType="truck" speedFactor="1.01" vaporized=""/>
    <tripinfo id="NS_4" depart="9.00" departLane="2i_0" departPos="4.10" departSpeed="0.00" departDelay="5.00" arrival="105.00" arrivalLane="3o_0" arrivalPos="492.80" arrivalSpeed="11.97" duration="96.00" routeLength="995.70" waitingTime="6.00" waitingCount="1" stopTime="0.00" timeLoss="30.00" rerouteNo="0" devices="tripinfo_NS_4" vType="car" speedFactor="1.08" vaporized=""/>
    <tripinfo id="NS_11" depart="11.00" departLane="2i_0" departPos="4.10" departSpeed="0.00" departDelay="0.00" arrival="105.00" arrivalLane="4o_0" arrivalPos="492.80" arrivalSpeed="10.58" duration="94.00" routeLength="990.53" waitingTime="4.00" waitingCount="1" stopTime="0.00" timeLoss="26.68" rerouteNo="0" devices="tripinfo_NS_11" vType="car" speedFactor="1.05" vaporized=""/>
    <tripinfo id="WE_15" depart="15.00" departLane="1i_0" departPos="4.10" departSpeed="0.00" departDelay="0.00" arrival="106.00" arrivalLane="2o_0" arrivalPos="492.80" arrivalSpeed="9.48" duration="91.00" routeLength="995.90" waitingTime="0.00" waitingCount="0" stopTime="0.00" timeLoss="8.17" rerouteNo="0" devices="tripinfo_WE_15" vType="car" speedFactor="0.86" vaporized=""/>
    <tripinfo id="NS_30" depart="30.00" departLane="2i_0" departPos="4.10" departSpeed="0.00" departDelay="0.00" arrival="113.00" arrivalLane="1o_0" arrivalPos="492.80" arrivalSpeed="9.99" duration="83.00" routeLength="995.90" waitingTime="0.00" waitingCount="0" stopTime="0.00" timeLoss="7.65" rerouteNo="0" devices="tripinfo_NS_30" vType="car" speedFactor="0.94" vaporized=""/>
    <tripinfo id="NS_31" depart="32.00" departLane="2i_0" departPos="4.10" departSpeed="0.00" departDelay="1.00" arrival="117.00" arrivalLane="1o_0" arrivalPos="492.80" arrivalSpeed="10.18" duration="85.00" routeLength="995.90" waitingTime="1.00" waitingCount="1" stopTime="0.00" timeLoss="9.51" rerouteNo="0" devices="tripinfo_NS_31" vType="car" speedFactor="0.94" vaporized=""/>
    <tripinfo id="WE_39" depart="39.00" departLane="1i_0" departPos="4.10" departSpeed="0.00" departDelay="0.00" arrival="117.00" arrivalLane="2o_0" arrivalPos="492.80" arrivalSpeed="10.34" duration="78.00" routeLength="995.90" waitingTime="0.00" waitingCount="0" stopTime="0.00" timeLoss="8.12" rerouteNo="0" devices="tripinfo_WE_39" vType="car" speedFactor="1.01" vaporized=""/>
    <tripinfo id="EW_16" depart="16.00" departLane="4i_0" departPos="4.10" departSpeed="0.00" departDelay="0.00" arrival="121.00" arrivalLane="1o_0" arrivalPos="492.80" arrivalSpeed="11.69" duration="105.00" routeLength="990.53" waitingTime="20.00" waitingCount="1" stopTime="0.00" timeLoss="40.18" rerouteNo="0" devices="tripinfo_EW_16" vType="car" speedFactor="1.09" vaporized=""/>
    <tripinfo id="EW_20" depart="20.00" departLane="4i_0" departPos="4.10" departSpeed="0.00" departDelay="0.00" arrival="125.00" arrivalLane="1o_0" arrivalPos="492.80" arrivalSpeed="10.89" duration="105.00" routeLength="990.53" waitingTime="18.00" waitingCount="1" stopTime="0.00" timeLoss="35.87" rerouteNo="0" devices="tripinfo_EW_20" vType="car" speedFactor="1.03" vaporized=""/>
    <tripinfo id="SN_11" depart="11.00" departLane="3i_0" departPos="4.10" departSpeed="0.00" departDelay="0.00" arrival="127.00" arrivalLane="2o_0" arrivalPos="492.80" arrivalSpeed="9.28" duration="116.00" routeLength="990.53" waitingTime="23.00" waitingCount="1" stopTime="0.00" timeLoss="35.95" rerouteNo="0" devices="tripinfo_SN_11" vType="car" speedFactor="0.89" vaporized=""/>
    <tripinfo id="NS_39" depart="39.00" departLane="2i_0" departPos="4.10" departSpeed="0.00" departDelay="0.00" arrival="129.00" arrivalLane="3o_0" arrivalPos="492.80" arrivalSpeed="10.58" duration="90.00" routeLength="995.70" waitingTime="4.00" waitingCount="2" stopTime="0.00" timeLoss="17.09" rerouteNo="0" devices="tripinfo_NS_39" vType="car" speedFactor="0.97" vaporized=""/>
    <tripinfo id="EW_21" depart="23.00" departLane="4i_0" departPos="4.10" departSpeed="0.00" departDelay="2.00" arrival="131.00" arrivalLane="3o_0" arrivalPos="492.80" arrivalSpeed="11.51" duration="108.00" routeLength="995.90" waitingTime="18.00" waitingCount="1" stopTime="0.00" timeLoss="39.72" rerouteNo="0" devices="tripinfo_EW_21" vType="car" speedFactor="1.05" vaporized=""/>
    <tripinfo id="EW_11" depart="11.00" departLane="4i_0" departPos="4.10" departSpeed="0.00" departDelay="0.00" arrival="133.00" arrivalLane="2o_0" arrivalPos="492.80" arrivalSpeed="8.38" duration="122.00" routeLength="995.70" waitingTime="22.00" waitingCount="1" stopTime="0.00" timeLoss="37.04" rerouteNo="0" devices="tripinfo_EW_11" vType="car" speedFactor="0.83" vaporized=""/>
    <tripinfo id="SN_14" depart="14.00" departLane="3i_0" departPos="4.10" departSpeed="0.00" departDelay="0.00" arrival="135.00" arrivalLane="2o_0" arrivalPos="492.80" arrivalSpeed="9.75" duration="121.00" routeLength="990.53" waitingTime="24.00" waitingCount="2" stopTime="0.00" timeLoss="45.76" rerouteNo="0" devices="tripinfo_SN_14" vType="car" speedFactor="0.94" vaporized=""/>
    <tripinfo id="EW_23" depart="26.00" departLane="4i_0" departPos="4.10" departSpeed="0.00" departDelay="3.00" arrival="135.00" arrivalLane="1o_0" arrivalPos="492.80" arrivalSpeed="10.58" duration="109.00" routeLength="990.53" waitingTime="17.00" waitingCount="2" stopTime="0.00" timeLoss="37.79" rerouteNo="0" devices="tripinfo_EW_23" vType="car" speedFactor="0.99" vaporized=""/>
    <tripinfo id="WE_52" depart="52.00" departLane="1i_0" departPos="4.10" departSpeed="0.00" departDelay="0.00" arrival="135.00" arrivalLane="3o_0" arrivalPos="492.80" arrivalSpeed="9.80" duration="83.00" routeLength="990.53" waitingTime="0.00" waitingCount="0" stopTime="0.00" timeLoss="8.27" rerouteNo="0" devices="tripinfo_WE_52" vType="car" speedFactor="0.95" vaporized=""/>
    <tripinfo id="WE_57" depart="57.00" departLane="1i_0" departPos="4.10" departSpeed="0.00" departDelay="0.00" arrival="137.00" arrivalLane="2o_0" arrivalPos="492.80" arrivalSpeed="11.93" duration="80.00" routeLength="995.90" waitingTime="0.00" waitingCount="0" stopTime="0.00" timeLoss="16.98" rerouteNo="0" devices="tripinfo_WE_57" vType="car" speedFactor="1.13" vaporized=""/>
    <tripinfo id="NS_48" depart="48.00" departLane="2i_0" departPos="4.10" departSpeed="0.00" departDelay="0.00" arrival="142.00" arrivalLane="3o_0" arrivalPos="492.80" arrivalSpeed="8.44" duration="94.00" routeLength="995.70" waitingTime="0.00" waitingCount="0" stopTime="0.00" timeLoss="12.97" rerouteNo="0" devices="tripinfo_NS_48" vType="car" speedFactor="0.87" vaporized=""/>
    <tripinfo id="NS_58" depart="58.00" departLane="2i_0" departPos="4.10" departSpeed="0.00" departDelay="0.00" arrival="142.00" arrivalLane="4o_0" arrivalPos="492.80" arrivalSpeed="9.78" duration="84.00" routeLength="990.53" waitingTime="0.00" waitingCount="0" stopTime="0.00" timeLoss="7.80" rerouteNo="0" devices="tripinfo_NS_58" vType="car" speedFactor="0.93" vaporized=""/>
    <tripinfo id="NS_59" depart="61.00" departLane="2i_0" departPos="4.10" departSpeed="0.00" departDelay="2.00" arrival="144.00" arrivalLane="3o_0" arrivalPos="492.80" arrivalSpeed="11.70" duration="83.00" routeLength="995.70" waitingTime="0.00" waitingCount="0" stopTime="0.00" timeLoss="21.25" rerouteNo="0" devices="tripinfo_NS_59" vType="car" speedFactor="1.15" vaporized=""/>
    <tripinfo id="SN_24" depart="24.00" departLane="3i_0" departPos="4.10" departSpeed="0.00" departDelay="0.00" arrival="145.00" arrivalLane="1o_0" arrivalPos="492.80" arrivalSpeed="10.23" duration="121.00" routeLength="995.70" waitingTime="20.00" waitingCount="4" stopTime="0.00" timeLoss="44.45" rerouteNo="0" devices="tripinfo_SN_24" vType="car" speedFactor="0.93" vaporized=""/>
    <tripinfo id="NS_72" depart="72.00" departLane="2i_0" departPos="10.10" departSpeed="0.00" departDelay="0.00" arrival="151.00" arrivalLane="1o_0" arrivalPos="492.80" arrivalSpeed="11.76" duration="79.00" routeLength="989.90" waitingTime="0.00" waitingCount="0" stopTime="0.00" timeLoss="12.31" rerouteNo="0" devices="tripinfo_NS_72" vType="truck" speedFactor="1.09" vaporized=""/>
    <tripinfo id="SN_25" depart="27.00" departLane="3i_0" departPos="4.10" departSpeed="0.00" departDelay="2.00" arrival="154.00" arrivalLane="4o_0" arrivalPos="492.80" arrivalSpeed="9.57" duration="127.00" routeLength="995.90" waitingTime="20.00" waitingCount="5" stopTime="0.00" timeLoss="45.91" rerouteNo="0" devices="tripinfo_SN_25" vType="car" speedFactor="0.88" vaporized=""/>
    <tripinfo id="EW_41" depart="41.00" departLane="4i_0" departPos="4.10" departSpeed="0.00" departDelay="0.00" arrival="154.00" arrivalLane="3o_0" arrivalPos="492.80" arrivalSpeed="9.53" duration="113.00" routeLength="995.90" waitingTime="8.00" waitingCount="2" stopTime="0.00" timeLoss="32.92" rerouteNo="0" devices="tripinfo_EW_41" vType="car" speedFactor="0.89" vaporized=""/>
    <tripinfo id="SN_34" depart="34.00" departLane="3i_0" departPos="4.10" departSpeed="0.00" departDelay="0.00" arrival="155.00" arrivalLane="1o_0" arrivalPos="492.80" arrivalSpeed="12.38" duration="121.00" routeLength="995.70" waitingTime="25.00" waitingCount="6" stopTime="0.00" timeLoss="60.04" rerouteNo="0" devices="tripinfo_SN_34" vType="car" speedFactor="1.16" vaporized=""/>
    <tripinfo id="NS_62" depart="64.00" departLane="2i_0" departPos="4.10" departSpeed="0.00" departDelay="2.00" arrival="155.00" arrivalLane="4o_0" arrivalPos="492.80" arrivalSpeed="10.36" duration="91.00" routeLength="990.53" waitingTime="0.00" waitingCount="0" stopTime="0.00" timeLoss="21.17" rerouteNo="0" devices="tripinfo_NS_62" vType="car" speedFactor="1.01" vaporized=""/>
    <tripinfo id="WE_73" depart="73.00" departLane="1i_0" departPos="4.10" departSpeed="0.00" departDelay="0.00" arrival="155.00" arrivalLane="3o_0" arrivalPos="492.80" arrivalSpeed="12.22" duration="82.00" routeLength="990.53" waitingTime="0.00" waitingCount="0" stopTime="0.00" timeLoss="18.10" rerouteNo="0" devices="tripinfo_WE_73" vType="car" speedFactor="1.10" vaporized=""/>
    <tripinfo id="NS_66" depart="67.00" departLane="2i_0" departPos="4.10" departSpeed="0.00" departDelay="1.00" arrival="158.00" arrivalLane="3o_0" arrivalPos="492.80" arrivalSpeed="10.66" duration="91.00" routeLength="995.70" waitingTime="0.00" waitingCount="0" stopTime="0.00" timeLoss="17.60" rerouteNo="0" devices="tripinfo_NS_66" vType="car" speedFactor="0.97" vaporized=""/>
    <tripinfo id="NS_78" depart="78.00" departLane="2i_0" departPos="4.10" departSpeed="0.00" departDelay="0.00" arrival="160.00" arrivalLane="3o_0" arrivalPos="492.80" arrivalSpeed="10.67" duration="82.00" routeLength="995.70" waitingTime="0.00" waitingCount="0" stopTime="0.00" timeLoss="12.59" rerouteNo="0" devices="tripinfo_NS_78" vType="car" speedFactor="1.03" vaporized=""/>
    <tripinfo id="NS_83" depart="83.00" departLane="2i_0" departPos="4.10" departSpeed="0.00" departDelay="0.00" arrival="160.00" arrivalLane="1o_0" arrivalPos="492.80" arrivalSpeed="12.07" duration="77.00" routeLength="995.90" waitingTime="0.00" waitingCount="0" stopTime="0.00" timeLoss="12.29" rerouteNo="0" devices="tripinfo_NS_83" vType="car" speedFactor="1.09" vaporized=""/>
    <tripinfo id="WE_96" depart="96.00" departLane="1i_0" departPos="10.10" departSpeed="0.00" departDelay="0.00" arrival="179.00" arrivalLane="3o_0" arrivalPos="492.80" arrivalSpeed="10.93" duration="83.00" routeLength="984.53" waitingTime="0.00" waitingCount="0" stopTime="0.00" timeLoss="12.82" rerouteNo="0" devices="tripinfo_WE_96" vType="truck" speedFactor="1.00" vaporized=""/>
    <tripinfo id="WE_111" depart="111.00" departLane="1i_0" departPos="4.10" departSpeed="0.00" departDelay="0.00" arrival="189.00" arrivalLane="2o_0" arrivalPos="492.80" arrivalSpeed="11.29" duration="78.00" routeLength="995.90" waitingTime="0.00" waitingCount="0" stopTime="0.00" timeLoss="8.26" rerouteNo="0" devices="tripinfo_WE_111" vType="car" speedFactor="1.02" vaporized=""/>
    <tripinfo id="WE_100" depart="100.00" departLane="1i_0" departPos="4.10" departSpeed="0.00" departDelay="0.00" arrival="195.00" arrivalLane="3o_0" arrivalPos="492.80" arrivalSpeed="8.74" duration="95.00" routeLength="990.53" waitingTime="0.00" waitingCount="0" stopTime="0.00" timeLoss="11.85" rerouteNo="0" devices="tripinfo_WE_100" vType="car" speedFactor="0.85" vaporized=""/>
    <tripinfo id="WE_114" depart="114.00" departLane="1i_0" departPos="4.10" departSpeed="0.00" departDelay="0.00" arrival="197.00" arrivalLane="3o_0" arrivalPos="492.80" arrivalSpeed="11.01" duration="83.00" routeLength="990.53" waitingTime="0.00" waitingCount="0" stopTime="0.00" timeLoss="18.09" rerouteNo="0" devices="tripinfo_WE_114" vType="car" speedFactor="1.10" vaporized=""/>
    <tripinfo id="NS_92" depart="92.00" departLane="2i_0" departPos="10.10" departSpeed="0.00" departDelay="0.00" arrival="199.00" arrivalLane="3o_0" arrivalPos="492.80" arrivalSpeed="11.14" duration="107.00" routeLength="989.70" waitingTime="13.00" waitingCount="1" stopTime="0.00" timeLoss="37.80" rerouteNo="0" devices="tripinfo_NS_92" vType="truck" speedFactor="1.02" vaporized=""/>
    <tripinfo id="NS_96" depart="97.00" departLane="2i_0" departPos="10.10" departSpeed="0.00" departDelay="1.00" arrival="202.00" arrivalLane="1o_0" arrivalPos="492.80" arrivalSpeed="10.44" duration="105.00" routeLength="989.90" waitingTime="8.00" waitingCount="1" stopTime="0.00" timeLoss="30.72" rerouteNo="0" devices="tripinfo_NS_96" vType="truck" speedFactor="0.95" vaporized=""/>
    <tripinfo id="NS_120" depart="120.00" departLane="2i_0" departPos="4.10" departSpeed="0.00" departDelay="0.00" arrival="204.00" arrivalLane="4o_0" arrivalPos="492.80" arrivalSpeed="10.85" duration="84.00" routeLength="990.53" waitingTime="0.00" waitingCount="0" stopTime="0.00" timeLoss="13.72" rerouteNo="0" devices="tripinfo_NS_120" vType="car" speedFactor="1.00" vaporized=""/>
    <tripinfo id="NS_122" depart="122.00" departLane="2i_0" departPos="4.10" departSpeed="0.00" departDelay="0.00" arrival="206.00" arrivalLane="4o_0" arrivalPos="492.80" arrivalSpeed="10.27" duration="84.00" routeLength="990.53" waitingTime="0.00" waitingCount="0" stopTime="0.00" timeLoss="13.22" rerouteNo="0" devices="tripinfo_NS_122" vType="car" speedFactor="1.00" vaporized=""/>
    <tripinfo id="NS_98" depart="101.00" departLane="2i_0" departPos="4.10" departSpeed="0.00" departDelay="3.00" arrival="210.00" arrivalLane="3o_0" arrivalPos="492.80" arrivalSpeed="9.55" duration="109.00" routeLength="995.70" waitingTime="6.00" waitingCount="1" stopTime="0.00" timeLoss="28.12" rerouteNo="0" devices="tripinfo_NS_98" vType="car" speedFactor="0.88" vaporized=""/>
    <tripinfo id="NS_130" depart="130.00" departLane="2i_0" departPos="4.10" departSpeed="0.00" departDelay="0.00" arrival="212.00" arrivalLane="3o_0" arrivalPos="492.80" arrivalSpeed="11.16" duration="82.00" routeLength="995.70" waitingTime="0.00" waitingCount="0" stopTime="0.00" timeLoss="19.68" rerouteNo="0" devices="tripinfo_NS_130" vType="car" speedFactor="1.14" vaporized=""/>
    <tripinfo id="NS_138" depart="138.00" departLane="2i_0" departPos="4.10" departSpeed="0.00" departDelay="0.00" arrival="212.00" arrivalLane="1o_0" arrivalPos="492.80" arrivalSpeed="11.72" duration="74.00" routeLength="995.90" waitingTime="0.00" waitingCount="0" stopTime="0.00" timeLoss="7.88" rerouteNo="0" devices="tripinfo_NS_138" vType="car" speedFactor="1.08" vaporized=""/>
    <tripinfo id="NS_152" depart="152.00" departLane="2i_0" departPos="4.10" departSpeed="0.00" departDelay="0.00" arrival="230.00" arrivalLane="3o_0" arrivalPos="492.80" arrivalSpeed="10.87" duration="78.00" routeLength="995.70" waitingTime="0.00" waitingCount="0" stopTime="0.00" timeLoss="10.07" rerouteNo="0" devices="tripinfo_NS_152" vType="car" speedFactor="1.04" vaporized=""/>
    <tripinfo id="WE_134" depart="135.00" departLane="1i_0" departPos="4.10" departSpeed="0.00" departDelay="1.00" arrival="238.00" arrivalLane="4o_0" arrivalPos="492.80" arrivalSpeed="10.32" duration="103.00" routeLength="995.70" waitingTime="21.00" waitingCount="1" stopTime="0.00" timeLoss="33.23" rerouteNo="0" devices="tripinfo_WE_134" vType="car" speedFactor="1.02" vaporized=""/>
    <tripinfo id="SN_38" depart="38.00" departLane="3i_0" departPos="4.10" departSpeed="0.00" departDelay="0.00" arrival="240.00" arrivalLane="4o_0" arrivalPos="492.80" arrivalSpeed="10.09" duration="202.00" routeLength="995.90" waitingTime="89.00" waitingCount="5" stopTime="0.00" timeLoss="132.57" rerouteNo="0" devices="tripinfo_SN_38" vType="car" speedFactor="1.02" vaporized=""/>
    <tripinfo id="EW_59" depart="59.00" departLane="4i_0" departPos="10.10" departSpeed="0.00" departDelay="0.00" arrival="241.00" arrivalLane="1o_0" arrivalPos="492.80" arrivalSpeed="11.91" duration="182.00" routeLength="984.53" waitingTime="85.00" waitingCount="3" stopTime="0.00" timeLoss="115.87" rerouteNo="0" devices="tripinfo_EW_59" vType="truck" speedFactor="1.09" vaporized=""/>
    <tripinfo id="SN_62" depart="62.00" departLane="3i_0" departPos="4.10" departSpeed="0.00" departDelay="0.00" arrival="244.00" arrivalLane="1o_0" arrivalPos="492.80" arrivalSpeed="12.69" duration="182.00" routeLength="995.70" waitingTime="80.00" waitingCount="3" stopTime="0.00" timeLoss="121.05" rerouteNo="0" devices="tripinfo_SN_62" vType="car" speedFactor="1.17" vaporized=""/>
    <tripinfo id="EW_50" depart="50.00" departLane="4i_0" departPos="10.10" departSpeed="0.00" departDelay="0.00" arrival="245.00" arrivalLane="3o_0" arrivalPos="492.80" arrivalSpeed="10.40" duration="195.00" routeLength="989.90" waitingTime="90.00" waitingCount="3" stopTime="0.00" timeLoss="121.00" rerouteNo="0" devices="tripinfo_EW_50" vType="truck" speedFactor="0.96" vaporized=""/>
    <tripinfo id="SN_41" depart="41.00" departLane="3i_0" departPos="4.10" departSpeed="0.00" departDelay="0.00" arrival="253.00" arrivalLane="2o_0" arrivalPos="492.80" arrivalSpeed="9.04" duration="212.00" routeLength="990.53" waitingTime="80.00" waitingCount="2" stopTime="0.00" timeLoss="126.47" rerouteNo="0" devices="tripinfo_SN_41" vType="car" speedFactor="0.83" vaporized=""/>
    <tripinfo id="NS_164" depart="164.00" departLane="2i_0" departPos="4.10" departSpeed="0.00" departDelay="0.00" arrival="253.00" arrivalLane="4o_0" arrivalPos="492.80" arrivalSpeed="9.82" duration="89.00" routeLength="990.53" waitingTime="1.00" waitingCount="1" stopTime="0.00" timeLoss="13.82" rerouteNo="0" devices="tripinfo_NS_164" vType="car" speedFactor="0.94" vaporized=""/>
    <tripinfo id="WE_137" depart="138.00" departLane="1i_0" departPos="4.10" departSpeed="0.00" departDelay="1.00" arrival="255.00" arrivalLane="2o_0" arrivalPos="492.80" arrivalSpeed="9.62" duration="117.00" routeLength="995.90" waitingTime="27.00" waitingCount="3" stopTime="0.00" timeLoss="44.09" rerouteNo="0" devices="tripinfo_WE_137" vType="car" speedFactor="0.97" vaporized=""/>
    <tripinfo id="NS_172" depart="172.00" departLane="2i_0" departPos="4.10" departSpeed="0.00" departDelay="0.00" arrival="266.00" arrivalLane="3o_0" arrivalPos="492.80" arrivalSpeed="9.62" duration="94.00" routeLength="995.70" waitingTime="9.00" waitingCount="1" stopTime="0.00" timeLoss="21.39" rerouteNo="0" devices="tripinfo_NS_172" vType="car" speedFactor="0.98" vaporized=""/>
    <tripinfo id="SN_82" depart="82.00" departLane="3i_0" departPos="4.10" departSpeed="0.00" departDelay="0.00" arrival="267.00" arrivalLane="2o_0" arrivalPos="492.80" arrivalSpeed="10.53" duration="185.00" routeLength="990.53" waitingTime="79.00" waitingCount="2" stopTime="0.00" timeLoss="111.24" rerouteNo="0" devices="tripinfo_SN_82" vType="car" speedFactor="0.96" vaporized=""/>
    <tripinfo id="EW_65" depart="65.00" departLane="4i_0" departPos="10.10" departSpeed="0.00" departDelay="0.00" arrival="269.00" arrivalLane="1o_0" arrivalPos="492.80" arrivalSpeed="10.68" duration="204.00" routeLength="984.53" waitingTime="100.00" waitingCount="4" stopTime="0.00" timeLoss="133.86" rerouteNo="0" devices="tripinfo_EW_65" vType="truck" speedFactor="1.00" vaporized=""/>
    <tripinfo id="WE_153" depart="155.00" departLane="1i_0" departPos="4.10" departSpeed="0.00" departDelay="2.00" arrival="269.00" arrivalLane="2o_0" arrivalPos="492.80" arrivalSpeed="10.17" duration="114.00" routeLength="995.90" waitingTime="17.00" waitingCount="3" stopTime="0.00" timeLoss="44.40" rerouteNo="0" devices="tripinfo_WE_153" vType="car" speedFactor="1.02" vaporized=""/>
    <tripinfo id="NS_187" depart="187.00" departLane="2i_0" departPos="4.10" departSpeed="0.00" departDelay="0.00" arrival="272.00" arrivalLane="3o_0" arrivalPos="492.80" arrivalSpeed="9.91" duration="85.00" routeLength="995.70" waitingTime="0.00" waitingCount="0" stopTime="0.00" timeLoss="14.12" rerouteNo="0" devices="tripinfo_NS_187" vType="car" speedFactor="1.00" vaporized=""/>
    <tripinfo id="EW_66" depart="69.00" departLane="4i_0" departPos="4.10" departSpeed="0.00" departDelay="3.00" arrival="274.00" arrivalLane="3o_0" arrivalPos="492.80" arrivalSpeed="11.03" duration="205.00" routeLength="995.90" waitingTime="98.00" waitingCount="4" stopTime="0.00" timeLoss="135.29" rerouteNo="0" devices="tripinfo_EW_66" vType="car" speedFactor="1.02" vaporized=""/>
    <tripinfo id="WE_149" depart="151.00" departLane="1i_0" departPos="4.10" departSpeed="0.00" departDelay="2.00" arrival="275.00" arrivalLane="4o_0" arrivalPos="492.80" arrivalSpeed="8.60" duration="124.00" routeLength="995.70" waitingTime="20.00" waitingCount="3" stopTime="0.00" timeLoss="44.00" rerouteNo="0" devices="tripinfo_WE_149" vType="car" speedFactor="0.88" vaporized=""/>
    <tripinfo id="SN_83" depart="85.00" departLane="3i_0" departPos="4.10" departSpeed="0.00" departDelay="2.00" arrival="277.00" arrivalLane="4o_0" arrivalPos="492.80" arrivalSpeed="10.48" duration="192.00" routeLength="995.90" waitingTime="83.00" waitingCount="4" stopTime="0.00" timeLoss="123.62" rerouteNo="0" devices="tripinfo_SN_83" vType="car" speedFactor="1.04" vaporized=""/>
    <tripinfo id="SN_138" depart="138.00" departLane="3i_0" departPos="4.10" departSpeed="0.00" departDelay="0.00" arrival="279.00" arrivalLane="1o_0" arrivalPos="492.80" arrivalSpeed="11.38" duration="141.00" routeLength="995.70" waitingTime="39.00" waitingCount="4" stopTime="0.00" timeLoss="77.55" rerouteNo="0" devices="tripinfo_SN_138" vType="car" speedFactor="1.12" vaporized=""/>
    <tripinfo id="WE_167" depart="167.00" departLane="1i_0" departPos="4.10" departSpeed="0.00" departDelay="0.00" arrival="279.00" arrivalLane="4o_0" arrivalPos="492.80" arrivalSpeed="11.54" duration="112.00" routeLength="995.70" waitingTime="16.00" waitingCount="4" stopTime="0.00" timeLoss="44.53" rerouteNo="0" devices="tripinfo_WE_167" vType="car" speedFactor="1.06" vaporized=""/>
    <tripinfo id="NS_192" depart="192.00" departLane="2i_0" departPos="4.10" departSpeed="0.00" departDelay="0.00" arrival="282.00" arrivalLane="3o_0" arrivalPos="492.80" arrivalSpeed="9.78" duration="90.00" routeLength="995.70" waitingTime="2.00" waitingCount="1" stopTime="0.00" timeLoss="16.82" rerouteNo="0" devices="tripinfo_NS_192" vType="car" speedFactor="0.98" vaporized=""/>
    <tripinfo id="WE_169" depart="169.00" departLane="1i_0" departPos="4.10" departSpeed="0.00" departDelay="0.00" arrival="284.00" arrivalLane="3o_0" arrivalPos="492.80" arrivalSpeed="9.42" duration="115.00" routeLength="990.53" waitingTime="9.00" waitingCount="4" stopTime="0.00" timeLoss="41.28" rerouteNo="0" devices="tripinfo_WE_169" vType="car" speedFactor="0.96" vaporized=""/>
    <tripinfo id="NS_203" depart="203.00" departLane="2i_0" departPos="4.10" departSpeed="0.00" departDelay="0.00" arrival="285.00" arrivalLane="1o_0" arrivalPos="492.80" arrivalSpeed="10.53" duration="82.00" routeLength="995.90" waitingTime="0.00" waitingCount="0" stopTime="0.00" timeLoss="12.74" rerouteNo="0" devices="tripinfo_NS_203" vType="car" speedFactor="1.02" vaporized=""/>
    <tripinfo id="WE_192" depart="192.00" departLane="1i_0" departPos="4.10" departSpeed="0.00" departDelay="0.00" arrival="286.00" arrivalLane="3o_0" arrivalPos="492.80" arrivalSpeed="11.85" duration="94.00" routeLength="990.53" waitingTime="1.00" waitingCount="1" stopTime="0.00" timeLoss="32.30" rerouteNo="0" devices="tripinfo_WE_192" vType="car" speedFactor="1.15" vaporized=""/>
    <tripinfo id="WE_194" depart="195.00" departLane="1i_0" departPos="4.10" departSpeed="0.00" departDelay="1.00" arrival="288.00" arrivalLane="3o_0" arrivalPos="492.80" arrivalSpeed="10.78" duration="93.00" routeLength="990.53" waitingTime="0.00" waitingCount="0" stopTime="0.00" timeLoss="22.21" rerouteNo="0" devices="tripinfo_WE_194" vType="car" speedFactor="1.00" vaporized=""/>
    <tripinfo id="NS_204" depart="206.00" departLane="2i_0" departPos="4.10" departSpeed="0.00" departDelay="2.00" arrival="288.00" arrivalLane="1o_0" arrivalPos="492.80" arrivalSpeed="10.47" duration="82.00" routeLength="995.90" waitingTime="0.00" waitingCount="0" stopTime="0.00" timeLoss="12.00" rerouteNo="0" devices="tripinfo_NS_204" vType="car" speedFactor="1.02" vaporized=""/>
    <tripinfo id="WE_199" depart="199.00" departLane="1i_0" departPos="4.10" departSpeed="0.00" departDelay="0.00" arrival="289.00" arrivalLane="4o_0" arrivalPos="492.80" arrivalSpeed="11.47" duration="90.00" routeLength="995.70" waitingTime="0.00" waitingCount="0" stopTime="0.00" timeLoss="21.52" rerouteNo="0" devices="tripinfo_WE_199" vType="car" speedFactor="1.04" vaporized=""/>
    <tripinfo id="WE_203" depart="203.00" departLane="1i_0" departPos="4.10" departSpeed="0.00" departDelay="0.00" arrival="291.00" arrivalLane="2o_0" arrivalPos="492.80" arrivalSpeed="10.09" duration="88.00" routeLength="995.90" waitingTime="0.00" waitingCount="0" stopTime="0.00" timeLoss="17.84" rerouteNo="0" devices="tripinfo_WE_203" vType="car" speedFactor="1.01" vaporized=""/>
    <tripinfo id="NS_215" depart="215.00" departLane="2i_0" departPos="4.10" departSpeed="0.00" departDelay="0.00" arrival="301.00" arrivalLane="4o_0" arrivalPos="492.80" arrivalSpeed="9.55" duration="86.00" routeLength="990.53" waitingTime="0.00" waitingCount="0" stopTime="0.00" timeLoss="9.15" rerouteNo="0" devices="tripinfo_NS_215" vType="car" speedFactor="0.92" vaporized=""/>
    <tripinfo id="WE_218" depart="218.00" departLane="1i_0" departPos="4.10" departSpeed="0.00" departDelay="0.00" arrival="303.00" arrivalLane="4o_0" arrivalPos="492.80" arrivalSpeed="11.91" duration="85.00" routeLength="995.70" waitingTime="0.00" waitingCount="0" stopTime="0.00" timeLoss="19.50" rerouteNo="0" devices="tripinfo_WE_218" vType="car" speedFactor="1.09" vaporized=""/>
    <tripinfo id="WE_225" depart="225.00" departLane="1i_0" departPos="4.10" departSpeed="0.00" departDelay="0.00" arrival="312.00" arrivalLane="2o_0" arrivalPos="492.80" arrivalSpeed="9.20" duration="87.00" routeLength="995.90" waitingTime="0.00" waitingCount="0" stopTime="0.00" timeLoss="8.52" rerouteNo="0" devices="tripinfo_WE_225" vType="car" speedFactor="0.91" vaporized=""/>
    <tripinfo id="WE_227" depart="229.00" departLane="1i_0" departPos="10.10" departSpeed="0.00" departDelay="2.00" arrival="314.00" arrivalLane="2o_0" arrivalPos="492.80" arrivalSpeed="11.57" duration="85.00" routeLength="989.90" waitingTime="0.00" waitingCount="0" stopTime="0.00" timeLoss="17.84" rerouteNo="0" devices="tripinfo_WE_227" vType="truck" speedFactor="1.06" vaporized=""/>