<?xml version="1.0" encoding="UTF-8"?>

<!-- generated on 2024-05-05 22:10:38 by Eclipse SUMO sumo Version 1.19.0
<configuration xmlns:xsi="http://www.w3.org/2001/XMLSchema-instance" xsi:noNamespaceSchemaLocation="http://sumo.dlr.de/xsd/sumoConfiguration.xsd">

    <input>
        <net-file value="twoone.net.xml"/>
        <route-files value="route_gen.rou.xml"/>
    </input>

    <output>
        <tripinfo-output value="tripinfo_epi216.xml"/>
    </output>

    <report>
        <no-warnings value="true"/>
    </report>

    <traci_server>
        <remote-port value="39689"/>
    </traci_server>

</configuration>
-->

<tripinfos xmlns:xsi="http://www.w3.org/2001/XMLSchema-instance" xsi:noNamespaceSchemaLocation="http://sumo.dlr.de/xsd/tripinfo_file.xsd">
    <tripinfo id="WE_5" depart="5.00" departLane="1i_0" departPos="4.10" departSpeed="0.00" departDelay="0.00" arrival="79.00" arrivalLane="3o_0" arrivalPos="492.80" arrivalSpeed="11.70" duration="74.00" routeLength="990.53" waitingTime="0.00" waitingCount="0" stopTime="0.00" timeLoss="7.08" rerouteNo="0" devices="tripinfo_WE_5" vType="car" speedFactor="1.06" vaporized=""/>
    <tripinfo id="NS_18" depart="18.00" departLane="2i_0" departPos="4.10" departSpeed="0.00" departDelay="0.00" arrival="95.00" arrivalLane="1o_0" arrivalPos="492.80" arrivalSpeed="10.31" duration="77.00" routeLength="995.90" waitingTime="0.00" waitingCount="0" stopTime="0.00" timeLoss="8.09" rerouteNo="0" devices="tripinfo_NS_18" vType="car" speedFactor="1.03" vaporized=""/>
    <tripinfo id="WE_16" depart="16.00" departLane="1i_0" departPos="10.10" departSpeed="0.00" departDelay="0.00" arrival="96.00" arrivalLane="3o_0" arrivalPos="492.80" arrivalSpeed="11.51" duration="80.00" routeLength="984.53" waitingTime="0.00" waitingCount="0" stopTime="0.00" timeLoss="12.24" rerouteNo="0" devices="tripinfo_WE_16" vType="truck" speedFactor="1.04" vaporized=""/>
    <tripinfo id="WE_25" depart="25.00" departLane="1i_0" departPos="4.10" departSpeed="0.00" departDelay="0.00" arrival="101.00" arrivalLane="2o_0" arrivalPos="492.80" arrivalSpeed="11.05" duration="76.00" routeLength="995.90" waitingTime="0.00" waitingCount="0" stopTime="0.00" timeLoss="8.34" rerouteNo="0" devices="tripinfo_WE_25" vType="car" speedFactor="1.05" vaporized=""/>
    <tripinfo id="NS_21" depart="21.00" departLane="2i_0" departPos="4.10" departSpeed="0.00" departDelay="0.00" arrival="116.00" arrivalLane="3o_0" arrivalPos="492.80" arrivalSpeed="9.11" duration="95.00" routeLength="995.70" waitingTime="0.00" waitingCount="0" stopTime="0.00" timeLoss="9.81" rerouteNo="0" devices="tripinfo_NS_21" vType="car" speedFactor="0.83" vaporized=""/>
    <tripinfo id="NS_39" depart="39.00" departLane="2i_0" departPos="10.10" departSpeed="0.00" departDelay="0.00" arrival="119.00" arrivalLane="4o_0" arrivalPos="492.80" arrivalSpeed="11.41" duration="80.00" routeLength="984.53" waitingTime="0.00" waitingCount="0" stopTime="0.00" timeLoss="12.46" rerouteNo="0" devices="tripinfo_NS_39" vType="truck" speedFactor="1.05" vaporized=""/>
    <tripinfo id="NS_33" depart="33.00" departLane="2i_0" departPos="4.10" departSpeed="0.00" departDelay="0.00" arrival="121.00" arrivalLane="1o_0" arrivalPos="492.80" arrivalSpeed="9.37" duration="88.00" routeLength="995.90" waitingTime="0.00" waitingCount="0" stopTime="0.00" timeLoss="8.15" rerouteNo="0" devices="tripinfo_NS_33" vType="car" speedFactor="0.89" vaporized=""/>
    <tripinfo id="WE_41" depart="41.00" departLane="1i_0" departPos="4.10" departSpeed="0.00" departDelay="0.00" arrival="126.00" arrivalLane="4o_0" arrivalPos="492.80" arrivalSpeed="10.17" duration="85.00" routeLength="995.70" waitingTime="3.00" waitingCount="1" stopTime="0.00" timeLoss="15.42" rerouteNo="0" devices="tripinfo_WE_41" vType="car" speedFactor="1.03" vaporized=""/>
    <tripinfo id="EW_5" depart="5.00" departLane="4i_0" departPos="4.10" departSpeed="0.00" departDelay="0.00" arrival="130.00" arrivalLane="1o_0" arrivalPos="492.80" arrivalSpeed="10.14" duration="125.00" routeLength="990.53" waitingTime="37.00" waitingCount="1" stopTime="0.00" timeLoss="49.89" rerouteNo="0" devices="tripinfo_EW_5" vType="car" speedFactor="0.94" vaporized=""/>
    <tripinfo id="SN_13" depart="13.00" departLane="3i_0" departPos="4.10" departSpeed="0.00" departDelay="0.00" arrival="132.00" arrivalLane="1o_0" arrivalPos="492.80" arrivalSpeed="10.74" duration="119.00" routeLength="995.70" waitingTime="30.00" waitingCount="1" stopTime="0.00" timeLoss="48.57" rerouteNo="0" devices="tripinfo_SN_13" vType="car" speedFactor="1.01" vaporized=""/>
    <tripinfo id="WE_45" depart="45.00" departLane="1i_0" departPos="4.10" departSpeed="0.00" departDelay="0.00" arrival="132.00" arrivalLane="4o_0" arrivalPos="492.80" arrivalSpeed="12.05" duration="87.00" routeLength="995.70" waitingTime="5.00" waitingCount="2" stopTime="0.00" timeLoss="23.45" rerouteNo="0" devices="tripinfo_WE_45" vType="car" speedFactor="1.12" vaporized=""/>
    <tripinfo id="NS_49" depart="49.00" departLane="2i_0" departPos="4.10" departSpeed="0.00" departDelay="0.00" arrival="132.00" arrivalLane="3o_0" arrivalPos="492.80" arrivalSpeed="9.83" duration="83.00" routeLength="995.70" waitingTime="0.00" waitingCount="0" stopTime="0.00" timeLoss="11.26" rerouteNo="0" devices="tripinfo_NS_49" vType="car" speedFactor="0.99" vaporized=""/>
    <tripinfo id="NS_51" depart="52.00" departLane="2i_0" departPos="4.10" departSpeed="0.00" departDelay="1.00" arrival="138.00" arrivalLane="3o_0" arrivalPos="492.80" arrivalSpeed="9.19" duration="86.00" routeLength="995.70" waitingTime="0.00" waitingCount="0" stopTime="0.00" timeLoss="10.12" rerouteNo="0" devices="tripinfo_NS_51" vType="car" speedFactor="0.94" vaporized=""/>
    <tripinfo id="EW_36" depart="36.00" departLane="4i_0" departPos="4.10" departSpeed="0.00" departDelay="0.00" arrival="139.00" arrivalLane="1o_0" arrivalPos="492.80" arrivalSpeed="9.82" duration="103.00" routeLength="990.53" waitingTime="8.00" waitingCount="2" stopTime="0.00" timeLoss="27.80" rerouteNo="0" devices="tripinfo_EW_36" vType="car" speedFactor="0.94" vaporized=""/>
    <tripinfo id="SN_36" depart="36.00" departLane="3i_0" departPos="4.10" departSpeed="0.00" departDelay="0.00" arrival="143.00" arrivalLane="2o_0" arrivalPos="492.80" arrivalSpeed="9.50" duration="107.00" routeLength="990.53" waitingTime="8.00" waitingCount="2" stopTime="0.00" timeLoss="24.99" rerouteNo="0" devices="tripinfo_SN_36" vType="car" speedFactor="0.86" vaporized=""/>
    <tripinfo id="WE_50" depart="50.00" departLane="1i_0" departPos="4.10" departSpeed="0.00" departDelay="0.00" arrival="146.00" arrivalLane="4o_0" arrivalPos="492.80" arrivalSpeed="8.86" duration="96.00" routeLength="995.70" waitingTime="0.00" waitingCount="0" stopTime="0.00" timeLoss="15.07" rerouteNo="0" devices="tripinfo_WE_50" vType="car" speedFactor="0.88" vaporized=""/>
    <tripinfo id="NS_64" depart="64.00" departLane="2i_0" departPos="4.10" departSpeed="0.00" departDelay="0.00" arrival="148.00" arrivalLane="4o_0" arrivalPos="492.80" arrivalSpeed="10.55" duration="84.00" routeLength="990.53" waitingTime="0.00" waitingCount="0" stopTime="0.00" timeLoss="13.93" rerouteNo="0" devices="tripinfo_NS_64" vType="car" speedFactor="1.02" vaporized=""/>
    <tripinfo id="EW_54" depart="54.00" departLane="4i_0" departPos="4.10" departSpeed="0.00" departDelay="0.00" arrival="149.00" arrivalLane="1o_0" arrivalPos="492.80" arrivalSpeed="9.84" duration="95.00" routeLength="990.53" waitingTime="7.00" waitingCount="1" stopTime="0.00" timeLoss="19.97" rerouteNo="0" devices="tripinfo_EW_54" vType="car" speedFactor="0.94" vaporized=""/>
    <tripinfo id="WE_65" depart="65.00" departLane="1i_0" departPos="4.10" departSpeed="0.00" departDelay="0.00" arrival="150.00" arrivalLane="4o_0" arrivalPos="492.80" arrivalSpeed="11.03" duration="85.00" routeLength="995.70" waitingTime="1.00" waitingCount="1" stopTime="0.00" timeLoss="14.57" rerouteNo="0" devices="tripinfo_WE_65" vType="car" speedFactor="1.01" vaporized=""/>
    <tripinfo id="NS_65" depart="67.00" departLane="2i_0" departPos="4.10" departSpeed="0.00" departDelay="2.00" arrival="150.00" arrivalLane="3o_0" arrivalPos="492.80" arrivalSpeed="10.09" duration="83.00" routeLength="995.70" waitingTime="0.00" waitingCount="0" stopTime="0.00" timeLoss="9.99" rerouteNo="0" devices="tripinfo_NS_65" vType="car" speedFactor="0.97" vaporized=""/>
    <tripinfo id="SN_42" depart="42.00" departLane="3i_0" departPos="4.10" departSpeed="0.00" departDelay="0.00" arrival="151.00" arrivalLane="1o_0" arrivalPos="492.80" arrivalSpeed="11.07" duration="109.00" routeLength="995.70" waitingTime="13.00" waitingCount="4" stopTime="0.00" timeLoss="41.57" rerouteNo="0" devices="tripinfo_SN_42" vType="car" speedFactor="1.05" vaporized=""/>
    <tripinfo id="WE_68" depart="68.00" departLane="1i_0" departPos="4.10" departSpeed="0.00" departDelay="0.00" arrival="157.00" arrivalLane="3o_0" arrivalPos="492.80" arrivalSpeed="9.26" duration="89.00" routeLength="990.53" waitingTime="0.00" waitingCount="0" stopTime="0.00" timeLoss="9.48" rerouteNo="0" devices="tripinfo_WE_68" vType="car" speedFactor="0.89" vaporized=""/>
    <tripinfo id="EW_55" depart="57.00" departLane="4i_0" departPos="4.10" departSpeed="0.00" departDelay="2.00" arrival="159.00" arrivalLane="3o_0" arrivalPos="492.80" arrivalSpeed="11.57" duration="102.00" routeLength="995.90" waitingTime="10.00" waitingCount="2" stopTime="0.00" timeLoss="40.27" rerouteNo="0" devices="tripinfo_EW_55" vType="car" speedFactor="1.16" vaporized=""/>
    <tripinfo id="NS_72" depart="72.00" departLane="2i_0" departPos="4.10" departSpeed="0.00" departDelay="0.00" arrival="163.00" arrivalLane="1o_0" arrivalPos="492.80" arrivalSpeed="9.51" duration="91.00" routeLength="995.90" waitingTime="0.00" waitingCount="0" stopTime="0.00" timeLoss="13.25" rerouteNo="0" devices="tripinfo_NS_72" vType="car" speedFactor="0.92" vaporized=""/>
    <tripinfo id="SN_49" depart="49.00" departLane="3i_0" departPos="4.10" departSpeed="0.00" departDelay="0.00" arrival="167.00" arrivalLane="1o_0" arrivalPos="492.80" arrivalSpeed="9.22" duration="118.00" routeLength="995.70" waitingTime="14.00" waitingCount="5" stopTime="0.00" timeLoss="41.38" rerouteNo="0" devices="tripinfo_SN_49" vType="car" speedFactor="0.93" vaporized=""/>
    <tripinfo id="NS_75" depart="75.00" departLane="2i_0" departPos="4.10" departSpeed="0.00" departDelay="0.00" arrival="168.00" arrivalLane="1o_0" arrivalPos="492.80" arrivalSpeed="12.00" duration="93.00" routeLength="995.90" waitingTime="3.00" waitingCount="1" stopTime="0.00" timeLoss="30.62" rerouteNo="0" devices="tripinfo_NS_75" vType="car" speedFactor="1.13" vaporized=""/>
    <tripinfo id="NS_84" depart="84.00" departLane="2i_0" departPos="4.10" departSpeed="0.00" departDelay="0.00" arrival="168.00" arrivalLane="3o_0" arrivalPos="492.80" arrivalSpeed="12.88" duration="84.00" routeLength="995.70" waitingTime="3.00" waitingCount="1" stopTime="0.00" timeLoss="23.46" rerouteNo="0" devices="tripinfo_NS_84" vType="car" speedFactor="1.17" vaporized=""/>
    <tripinfo id="WE_69" depart="71.00" departLane="1i_0" departPos="4.10" departSpeed="0.00" departDelay="2.00" arrival="170.00" arrivalLane="2o_0" arrivalPos="492.80" arrivalSpeed="9.06" duration="99.00" routeLength="995.90" waitingTime="0.00" waitingCount="0" stopTime="0.00" timeLoss="13.43" rerouteNo="0" devices="tripinfo_WE_69" vType="car" speedFactor="0.83" vaporized=""/>
    <tripinfo id="NS_81" depart="81.00" departLane="2i_0" departPos="4.10" departSpeed="0.00" departDelay="0.00" arrival="170.00" arrivalLane="1o_0" arrivalPos="492.80" arrivalSpeed="10.63" duration="89.00" routeLength="995.90" waitingTime="1.00" waitingCount="1" stopTime="0.00" timeLoss="18.47" rerouteNo="0" devices="tripinfo_NS_81" vType="car" speedFactor="1.01" vaporized=""/>
    <tripinfo id="WE_93" depart="93.00" departLane="1i_0" departPos="4.10" departSpeed="0.00" departDelay="0.00" arrival="173.00" arrivalLane="2o_0" arrivalPos="492.80" arrivalSpeed="10.19" duration="80.00" routeLength="995.90" waitingTime="0.00" waitingCount="0" stopTime="0.00" timeLoss="6.99" rerouteNo="0" devices="tripinfo_WE_93" vType="car" speedFactor="0.97" vaporized=""/>
    <tripinfo id="NS_91" depart="91.00" departLane="2i_0" departPos="4.10" departSpeed="0.00" departDelay="0.00" arrival="177.00" arrivalLane="3o_0" arrivalPos="492.80" arrivalSpeed="10.25" duration="86.00" routeLength="995.70" waitingTime="0.00" waitingCount="0" stopTime="0.00" timeLoss="16.17" rerouteNo="0" devices="tripinfo_NS_91" vType="car" speedFactor="1.02" vaporized=""/>
    <tripinfo id="WE_109" depart="109.00" departLane="1i_0" departPos="4.10" departSpeed="0.00" departDelay="0.00" arrival="182.00" arrivalLane="2o_0" arrivalPos="492.80" arrivalSpeed="10.88" duration="73.00" routeLength="995.90" waitingTime="0.00" waitingCount="0" stopTime="0.00" timeLoss="7.81" rerouteNo="0" devices="tripinfo_WE_109" vType="car" speedFactor="1.09" vaporized=""/>
    <tripinfo id="EW_73" depart="75.00" departLane="4i_0" departPos="4.10" departSpeed="0.00" departDelay="2.00" arrival="195.00" arrivalLane="3o_0" arrivalPos="492.80" arrivalSpeed="10.25" duration="120.00" routeLength="995.90" waitingTime="27.00" waitingCount="1" stopTime="0.00" timeLoss="44.94" rerouteNo="0" devices="tripinfo_EW_73" vType="car" speedFactor="0.95" vaporized=""/>
    <tripinfo id="EW_72" depart="72.00" departLane="4i_0" departPos="4.10" departSpeed="0.00" departDelay="0.00" arrival="197.00" arrivalLane="1o_0" arrivalPos="492.80" arrivalSpeed="9.69" duration="125.00" routeLength="990.53" waitingTime="30.00" waitingCount="1" stopTime="0.00" timeLoss="43.74" rerouteNo="0" devices="tripinfo_EW_72" vType="car" speedFactor="0.87" vaporized=""/>
    <tripinfo id="EW_79" depart="79.00" departLane="4i_0" departPos="4.10" departSpeed="0.00" departDelay="0.00" arrival="198.00" arrivalLane="1o_0" arrivalPos="492.80" arrivalSpeed="11.71" duration="119.00" routeLength="990.53" waitingTime="28.00" waitingCount="1" stopTime="0.00" timeLoss="57.93" rerouteNo="0" devices="tripinfo_EW_79" vType="car" speedFactor="1.15" vaporized=""/>
    <tripinfo id="EW_91" depart="91.00" departLane="4i_0" departPos="4.10" departSpeed="0.00" departDelay="0.00" arrival="200.00" arrivalLane="3o_0" arrivalPos="492.80" arrivalSpeed="10.89" duration="109.00" routeLength="995.90" waitingTime="18.00" waitingCount="1" stopTime="0.00" timeLoss="37.41" rerouteNo="0" devices="tripinfo_EW_91" vType="car" speedFactor="0.99" vaporized=""/>
    <tripinfo id="SN_75" depart="75.00" departLane="3i_0" departPos="4.10" departSpeed="0.00" departDelay="0.00" arrival="201.00" arrivalLane="1o_0" arrivalPos="492.80" arrivalSpeed="9.43" duration="126.00" routeLength="995.70" waitingTime="32.00" waitingCount="3" stopTime="0.00" timeLoss="49.46" rerouteNo="0" devices="tripinfo_SN_75" vType="car" speedFactor="0.93" vaporized=""/>
    <tripinfo id="SN_76" depart="79.00" departLane="3i_0" departPos="4.10" departSpeed="0.00" departDelay="3.00" arrival="202.00" arrivalLane="1o_0" arrivalPos="492.80" arrivalSpeed="11.16" duration="123.00" routeLength="995.70" waitingTime="30.00" waitingCount="5" stopTime="0.00" timeLoss="63.07" rerouteNo="0" devices="tripinfo_SN_76" vType="car" speedFactor="1.18" vaporized=""/>
    <tripinfo id="SN_93" depart="96.00" departLane="3i_0" departPos="4.10" departSpeed="0.00" departDelay="3.00" arrival="202.00" arrivalLane="2o_0" arrivalPos="492.80" arrivalSpeed="12.30" duration="106.00" routeLength="990.53" waitingTime="23.00" waitingCount="3" stopTime="0.00" timeLoss="46.44" rerouteNo="0" devices="tripinfo_SN_93" vType="car" speedFactor="1.18" vaporized=""/>
    <tripinfo id="EW_98" depart="98.00" departLane="4i_0" departPos="4.10" departSpeed="0.00" departDelay="0.00" arrival="206.00" arrivalLane="1o_0" arrivalPos="492.80" arrivalSpeed="11.72" duration="108.00" routeLength="990.53" waitingTime="20.00" waitingCount="2" stopTime="0.00" timeLoss="43.58" rerouteNo="0" devices="tripinfo_EW_98" vType="car" speedFactor="1.10" vaporized=""/>
    <tripinfo id="WE_121" depart="121.00" departLane="1i_0" departPos="10.10" departSpeed="0.00" departDelay="0.00" arrival="206.00" arrivalLane="4o_0" arrivalPos="492.80" arrivalSpeed="11.32" duration="85.00" routeLength="989.70" waitingTime="0.00" waitingCount="0" stopTime="0.00" timeLoss="15.50" rerouteNo="0" devices="tripinfo_WE_121" vType="truck" speedFactor="1.02" vaporized=""/>
    <tripinfo id="EW_121" depart="121.00" departLane="4i_0" departPos="4.10" departSpeed="0.00" departDelay="0.00" arrival="208.00" arrivalLane="3o_0" arrivalPos="492.80" arrivalSpeed="11.68" duration="87.00" routeLength="995.90" waitingTime="6.00" waitingCount="1" stopTime="0.00" timeLoss="22.00" rerouteNo="0" devices="tripinfo_EW_121" vType="car" speedFactor="1.09" vaporized=""/>
    <tripinfo id="SN_104" depart="104.00" departLane="3i_0" departPos="4.10" departSpeed="0.00" departDelay="0.00" arrival="214.00" arrivalLane="1o_0" arrivalPos="492.80" arrivalSpeed="10.69" duration="110.00" routeLength="995.70" waitingTime="11.00" waitingCount="3" stopTime="0.00" timeLoss="41.27" rerouteNo="0" devices="tripinfo_SN_104" vType="car" speedFactor="1.03" vaporized=""/>
    <tripinfo id="EW_123" depart="126.00" departLane="4i_0" departPos="4.10" departSpeed="0.00" departDelay="3.00" arrival="214.00" arrivalLane="2o_0" arrivalPos="492.80" arrivalSpeed="10.75" duration="88.00" routeLength="995.70" waitingTime="2.00" waitingCount="1" stopTime="0.00" timeLoss="17.10" rerouteNo="0" devices="tripinfo_EW_123" vType="car" speedFactor="1.00" vaporized=""/>
    <tripinfo id="SN_98" depart="99.00" departLane="3i_0" departPos="4.10" departSpeed="0.00" departDelay="1.00" arrival="218.00" arrivalLane="4o_0" arrivalPos="492.80" arrivalSpeed="9.89" duration="119.00" routeLength="995.90" waitingTime="15.00" waitingCount="3" stopTime="0.00" timeLoss="39.80" rerouteNo="0" devices="tripinfo_SN_98" vType="car" speedFactor="0.90" vaporized=""/>
    <tripinfo id="NS_146" depart="146.00" departLane="2i_0" departPos="4.10" departSpeed="0.00" departDelay="0.00" arrival="219.00" arrivalLane="4o_0" arrivalPos="492.80" arrivalSpeed="11.08" duration="73.00" routeLength="990.53" waitingTime="0.00" waitingCount="0" stopTime="0.00" timeLoss="12.60" rerouteNo="0" devices="tripinfo_NS_146" vType="car" speedFactor="1.17" vaporized=""/>
    <tripinfo id="SN_105" depart="107.00" departLane="3i_0" departPos="4.10" departSpeed="0.00" departDelay="2.00" arrival="223.00" arrivalLane="2o_0" arrivalPos="492.80" arrivalSpeed="9.88" duration="116.00" routeLength="990.53" waitingTime="8.00" waitingCount="4" stopTime="0.00" timeLoss="41.81" rerouteNo="0" devices="tripinfo_SN_105" vType="car" speedFactor="0.96" vaporized=""/>
    <tripinfo id="NS_147" depart="149.00" departLane="2i_0" departPos="4.10" departSpeed="0.00" departDelay="2.00" arrival="227.00" arrivalLane="4o_0" arrivalPos="492.80" arrivalSpeed="10.02" duration="78.00" routeLength="990.53" waitingTime="0.00" waitingCount="0" stopTime="0.00" timeLoss="8.50" rerouteNo="0" devices="tripinfo_NS_147" vType="car" speedFactor="1.02" vaporized=""/>
    <tripinfo id="WE_139" depart="139.00" departLane="1i_0" departPos="4.10" departSpeed="0.00" departDelay="0.00" arrival="231.00" arrivalLane="2o_0" arrivalPos="492.80" arrivalSpeed="8.29" duration="92.00" routeLength="995.90" waitingTime="0.00" waitingCount="0" stopTime="0.00" timeLoss="8.83" rerouteNo="0" devices="tripinfo_WE_139" vType="car" speedFactor="0.85" vaporized=""/>
    <tripinfo id="SN_117" depart="117.00" departLane="3i_0" departPos="4.10" departSpeed="0.00" departDelay="0.00" arrival="233.00" arrivalLane="2o_0" arrivalPos="492.80" arrivalSpeed="10.60" duration="116.00" routeLength="990.53" waitingTime="3.00" waitingCount="2" stopTime="0.00" timeLoss="47.93" rerouteNo="0" devices="tripinfo_SN_117" vType="car" speedFactor="1.04" vaporized=""/>
    <tripinfo id="WE_145" depart="145.00" departLane="1i_0" departPos="4.10" departSpeed="0.00" departDelay="0.00" arrival="236.00" arrivalLane="3o_0" arrivalPos="492.80" arrivalSpeed="9.39" duration="91.00" routeLength="990.53" waitingTime="0.00" waitingCount="0" stopTime="0.00" timeLoss="8.82" rerouteNo="0" devices="tripinfo_WE_145" vType="car" speedFactor="0.85" vaporized=""/>
    <tripinfo id="WE_148" depart="149.00" departLane="1i_0" departPos="10.10" departSpeed="0.00" departDelay="1.00" arrival="237.00" arrivalLane="2o_0" arrivalPos="492.80" arrivalSpeed="11.10" duration="88.00" routeLength="989.90" waitingTime="0.00" waitingCount="0" stopTime="0.00" timeLoss="20.15" rerouteNo="0" devices="tripinfo_WE_148" vType="truck" speedFactor="1.05" vaporized=""/>
    <tripinfo id="SN_129" depart="129.00" departLane="3i_0" departPos="4.10" departSpeed="0.00" departDelay="0.00" arrival="240.00" arrivalLane="4o_0" arrivalPos="492.80" arrivalSpeed="9.69" duration="111.00" routeLength="995.90" waitingTime="2.00" waitingCount="2" stopTime="0.00" timeLoss="31.77" rerouteNo="0" devices="tripinfo_SN_129" vType="car" speedFactor="0.90" vaporized=""/>
    <tripinfo id="NS_150" depart="152.00" departLane="2i_0" departPos="4.10" departSpeed="0.00" departDelay="2.00" arrival="242.00" arrivalLane="3o_0" arrivalPos="492.80" arrivalSpeed="10.50" duration="90.00" routeLength="995.70" waitingTime="4.00" waitingCount="1" stopTime="0.00" timeLoss="19.29" rerouteNo="0" devices="tripinfo_NS_150" vType="car" speedFactor="1.00" vaporized=""/>
    <tripinfo id="WE_167" depart="168.00" departLane="1i_0" departPos="4.10" departSpeed="0.00" departDelay="1.00" arrival="245.00" arrivalLane="3o_0" arrivalPos="492.80" arrivalSpeed="10.35" duration="77.00" routeLength="990.53" waitingTime="0.00" waitingCount="0" stopTime="0.00" timeLoss="7.91" rerouteNo="0" devices="tripinfo_WE_167" vType="car" speedFactor="1.02" vaporized=""/>
    <tripinfo id="EW_160" depart="160.00" departLane="4i_0" departPos="4.10" departSpeed="0.00" departDelay="0.00" arrival="247.00" arrivalLane="1o_0" arrivalPos="492.80" arrivalSpeed="9.75" duration="87.00" routeLength="990.53" waitingTime="0.00" waitingCount="0" stopTime="0.00" timeLoss="8.48" rerouteNo="0" devices="tripinfo_EW_160" vType="car" speedFactor="0.90" vaporized=""/>
    <tripinfo id="SN_132" depart="133.00" departLane="3i_0" departPos="10.10" departSpeed="0.00" departDelay="1.00" arrival="250.00" arrivalLane="1o_0" arrivalPos="492.80" arrivalSpeed="10.24" duration="117.00" routeLength="989.70" waitingTime="3.00" waitingCount="3" stopTime="0.00" timeLoss="41.61" rerouteNo="0" devices="tripinfo_SN_132" vType="truck" speedFactor="0.94" vaporized=""/>
    <tripinfo id="SN_157" depart="159.00" departLane="3i_0" departPos="4.10" departSpeed="0.00" departDelay="2.00" arrival="252.00" arrivalLane="4o_0" arrivalPos="492.80" arrivalSpeed="10.42" duration="93.00" routeLength="995.90" waitingTime="0.00" waitingCount="0" stopTime="0.00" timeLoss="21.57" rerouteNo="0" devices="tripinfo_SN_157" vType="car" speedFactor="1.00" vaporized=""/>
    <tripinfo id="EW_167" depart="167.00" departLane="4i_0" departPos="4.10" departSpeed="0.00" departDelay="0.00" arrival="253.00" arrivalLane="1o_0" arrivalPos="492.80" arrivalSpeed="10.58" duration="86.00" routeLength="990.53" waitingTime="0.00" waitingCount="0" stopTime="0.00" timeLoss="13.17" rerouteNo="0" devices="tripinfo_EW_167" vType="car" speedFactor="0.97" vaporized=""/>
    <tripinfo id="SN_164" depart="164.00" departLane="3i_0" departPos="10.10" departSpeed="0.00" departDelay="0.00" arrival="259.00" arrivalLane="4o_0" arrivalPos="492.80" arrivalSpeed="11.46" duration="95.00" routeLength="989.90" waitingTime="3.00" waitingCount="2" stopTime="0.00" timeLoss="27.68" rerouteNo="0" devices="tripinfo_SN_164" vType="truck" speedFactor="1.07" vaporized=""/>
    <tripinfo id="SN_175" depart="177.00" departLane="3i_0" departPos="4.10" departSpeed="0.00" departDelay="2.00" arrival="260.00" arrivalLane="2o_0" arrivalPos="492.80" arrivalSpeed="11.07" duration="83.00" routeLength="990.53" waitingTime="0.00" waitingCount="0" stopTime="0.00" timeLoss="17.92" rerouteNo="0" devices="tripinfo_SN_175" vType="car" speedFactor="1.08" vaporized=""/>
    <tripinfo id="NS_180" depart="182.00" departLane="2i_0" departPos="4.10" departSpeed="0.00" departDelay="2.00" arrival="265.00" arrivalLane="1o_0" arrivalPos="492.80" arrivalSpeed="11.25" duration="83.00" routeLength="995.90" waitingTime="0.00" waitingCount="0" stopTime="0.00" timeLoss="13.29" rerouteNo="0" devices="tripinfo_NS_180" vType="car" speedFactor="1.02" vaporized=""/>
    <tripinfo id="NS_183" depart="185.00" departLane="2i_0" departPos="4.10" departSpeed="0.00" departDelay="2.00" arrival="269.00" arrivalLane="4o_0" arrivalPos="492.80" arrivalSpeed="10.10" duration="84.00" routeLength="990.53" waitingTime="0.00" waitingCount="0" stopTime="0.00" timeLoss="12.05" rerouteNo="0" devices="tripinfo_NS_183" vType="car" speedFactor="0.99" vaporized=""/>
    <tripinfo id="WE_180" depart="180.00" departLane="1i_0" departPos="4.10" departSpeed="0.00" departDelay="0.00" arrival="270.00" arrivalLane="4o_0" arrivalPos="492.80" arrivalSpeed="11.85" duration="90.00" routeLength="995.70" waitingTime="5.00" waitingCount="1" stopTime="0.00" timeLoss="26.73" rerouteNo="0" devices="tripinfo_WE_180" vType="car" speedFactor="1.12" vaporized=""/>
    <tripinfo id="WE_185" depart="185.00" departLane="1i_0" departPos="10.10" departSpeed="0.00" departDelay="0.00" arrival="271.00" arrivalLane="3o_0" arrivalPos="492.80" arrivalSpeed="10.50" duration="86.00" routeLength="984.53" waitingTime="0.00" waitingCount="0" stopTime="0.00" timeLoss="13.30" rerouteNo="0" devices="tripinfo_WE_185" vType="truck" speedFactor="0.97" vaporized=""/>
    <tripinfo id="WE_202" depart="202.00" departLane="1i_0" departPos="10.10" departSpeed="0.00" departDelay="0.00" arrival="285.00" arrivalLane="3o_0" arrivalPos="492.80" arrivalSpeed="11.25" duration="83.00" routeLength="984.53" waitingTime="0.00" waitingCount="0" stopTime="0.00" timeLoss="14.22" rerouteNo="0" devices="tripinfo_WE_202" vType="truck" speedFactor="1.02" vaporized=""/>
    <tripinfo id="WE_205" depart="206.00" departLane="1i_0" departPos="4.10" departSpeed="0.00" departDelay="1.00" arrival="291.00" arrivalLane="2o_0" arrivalPos="492.80" arrivalSpeed="10.74" duration="85.00" routeLength="995.90" waitingTime="0.00" waitingCount="0" stopTime="0.00" timeLoss="15.80" rerouteNo="0" devices="tripinfo_WE_205" vType="car" speedFactor="1.02" vaporized=""/>
    <tripinfo id="WE_212" depart="212.00" departLane="1i_0" departPos="4.10" departSpeed="0.00" departDelay="0.00" arrival="293.00" arrivalLane="4o_0" arrivalPos="492.80" arrivalSpeed="10.24" duration="81.00" routeLength="995.70" waitingTime="0.00" waitingCount="0" stopTime="0.00" timeLoss="11.90" rerouteNo="0" devices="tripinfo_WE_212" vType="car" speedFactor="1.02" vaporized=""/>
    <tripinfo id="EW_188" depart="188.00" departLane="4i_0" departPos="4.10" departSpeed="0.00" departDelay="0.00" arrival="294.00" arrivalLane="1o_0" arrivalPos="492.80" arrivalSpeed="8.73" duration="106.00" routeLength="990.53" waitingTime="13.00" waitingCount="1" stopTime="0.00" timeLoss="25.91" rerouteNo="0" devices="tripinfo_EW_188" vType="car" speedFactor="0.88" vaporized=""/>
    <tripinfo id="SN_192" depart="192.00" departLane="3i_0" departPos="4.10" departSpeed="0.00" departDelay="0.00" arrival="296.00" arrivalLane="1o_0" arrivalPos="492.80" arrivalSpeed="9.04" duration="104.00" routeLength="995.70" waitingTime="9.00" waitingCount="2" stopTime="0.00" timeLoss="25.59" rerouteNo="0" devices="tripinfo_SN_192" vType="car" speedFactor="0.91" vaporized=""/>
    <tripinfo id="SN_198" depart="200.00" departLane="3i_0" departPos="4.10" departSpeed="0.00" departDelay="2.00" arrival="300.00" arrivalLane="2o_0" arrivalPos="492.80" arrivalSpeed="8.87" duration="100.00" routeLength="990.53" waitingTime="4.00" waitingCount="3" stopTime="0.00" timeLoss="22.59" rerouteNo="0" devices="tripinfo_SN_198" vType="car" speedFactor="0.91" vaporized=""/>
    <tripinfo id="EW_212" depart="212.00" departLane="4i_0" departPos="4.10" departSpeed="0.00" departDelay="0.00" arrival="301.00" arrivalLane="2o_0" arrivalPos="492.80" arrivalSpeed="10.04" duration="89.00" routeLength="995.70" waitingTime="1.00" waitingCount="1" stopTime="0.00" timeLoss="16.41" rerouteNo="0" devices="tripinfo_EW_212" vType="car" speedFactor="0.97" vaporized=""/>
    <tripinfo id="NS_222" depart="223.00" departLane="2i_0" departPos="4.10" departSpeed="0.00" departDelay="1.00" arrival="301.00" arrivalLane="4o_0" arrivalPos="492.80" arrivalSpeed="10.91" duration="78.00" routeLength="990.53" waitingTime="0.00" waitingCount="0" stopTime="0.00" timeLoss="9.81" rerouteNo="0" devices="tripinfo_NS_222" vType="car" speedFactor="1.03" vaporized=""/>
    <tripinfo id="WE_216" depart="216.00" departLane="1i_0" departPos="4.10" departSpeed="0.00" departDelay="0.00" arrival="303.00" arrivalLane="2o_0" arrivalPos="492.80" arrivalSpeed="9.55" duration="87.00" routeLength="995.90" waitingTime="0.00" waitingCount="0" stopTime="0.00" timeLoss="13.05" rerouteNo="0" devices="tripinfo_WE_216" vType="car" speedFactor="0.96" vaporized=""/>
    <tripinfo id="NS_227" depart="227.00" departLane="2i_0" departPos="4.10" departSpeed="0.00" departDelay="0.00" arrival="305.00" arrivalLane="1o_0" arrivalPos="492.80" arrivalSpeed="10.98" duration="78.00" routeLength="995.90" waitingTime="0.00" waitingCount="0" stopTime="0.00" timeLoss="7.71" rerouteNo="0" devices="tripinfo_NS_227" vType="car" speedFactor="1.01" vaporized=""/>
    <tripinfo id="SN_212" depart="212.00" departLane="3i_0" departPos="4.10" departSpeed="0.00" departDelay="0.00" arrival="306.00" arrivalLane="2o_0" arrivalPos="492.80" arrivalSpeed="9.72" duration="94.00" routeLength="990.53" waitingTime="3.00" waitingCount="2" stopTime="0.00" timeLoss="18.99" rerouteNo="0" devices="tripinfo_SN_212" vType="car" speedFactor="0.94" vaporized=""/>