<?xml version="1.0" encoding="UTF-8"?>

<!-- generated on 2024-05-05 21:36:48 by Eclipse SUMO sumo Version 1.19.0
<configuration xmlns:xsi="http://www.w3.org/2001/XMLSchema-instance" xsi:noNamespaceSchemaLocation="http://sumo.dlr.de/xsd/sumoConfiguration.xsd">

    <input>
        <net-file value="twoone.net.xml"/>
        <route-files value="route_gen.rou.xml"/>
    </input>

    <output>
        <tripinfo-output value="tripinfo_epi65.xml"/>
    </output>

    <report>
        <no-warnings value="true"/>
    </report>

    <traci_server>
        <remote-port value="46575"/>
    </traci_server>

</configuration>
-->

<tripinfos xmlns:xsi="http://www.w3.org/2001/XMLSchema-instance" xsi:noNamespaceSchemaLocation="http://sumo.dlr.de/xsd/tripinfo_file.xsd">
    <tripinfo id="WE_0" depart="0.00" departLane="1i_0" departPos="4.10" departSpeed="0.00" departDelay="0.00" arrival="74.00" arrivalLane="3o_0" arrivalPos="492.80" arrivalSpeed="11.74" duration="74.00" routeLength="990.53" waitingTime="0.00" waitingCount="0" stopTime="0.00" timeLoss="6.94" rerouteNo="0" devices="tripinfo_WE_0" vType="car" speedFactor="1.06" vaporized=""/>
    <tripinfo id="WE_19" depart="19.00" departLane="1i_0" departPos="4.10" departSpeed="0.00" departDelay="0.00" arrival="107.00" arrivalLane="2o_0" arrivalPos="492.80" arrivalSpeed="9.59" duration="88.00" routeLength="995.90" waitingTime="0.00" waitingCount="0" stopTime="0.00" timeLoss="8.13" rerouteNo="0" devices="tripinfo_WE_19" vType="car" speedFactor="0.89" vaporized=""/>
    <tripinfo id="NS_25" depart="25.00" departLane="2i_0" departPos="10.10" departSpeed="0.00" departDelay="0.00" arrival="112.00" arrivalLane="1o_0" arrivalPos="492.80" arrivalSpeed="10.47" duration="87.00" routeLength="989.90" waitingTime="0.00" waitingCount="0" stopTime="0.00" timeLoss="16.41" rerouteNo="0" devices="tripinfo_NS_25" vType="truck" speedFactor="1.00" vaporized=""/>
    <tripinfo id="NS_15" depart="15.00" departLane="2i_0" departPos="4.10" departSpeed="0.00" departDelay="0.00" arrival="114.00" arrivalLane="3o_0" arrivalPos="492.80" arrivalSpeed="8.17" duration="99.00" routeLength="995.70" waitingTime="1.00" waitingCount="1" stopTime="0.00" timeLoss="14.07" rerouteNo="0" devices="tripinfo_NS_15" vType="car" speedFactor="0.83" vaporized=""/>
    <tripinfo id="NS_22" depart="22.00" departLane="2i_0" departPos="4.10" departSpeed="0.00" departDelay="0.00" arrival="116.00" arrivalLane="3o_0" arrivalPos="492.80" arrivalSpeed="10.87" duration="94.00" routeLength="995.70" waitingTime="2.00" waitingCount="1" stopTime="0.00" timeLoss="26.24" rerouteNo="0" devices="tripinfo_NS_22" vType="car" speedFactor="1.05" vaporized=""/>
    <tripinfo id="NS_49" depart="49.00" departLane="2i_0" departPos="4.10" departSpeed="0.00" departDelay="0.00" arrival="127.00" arrivalLane="4o_0" arrivalPos="492.80" arrivalSpeed="10.94" duration="78.00" routeLength="990.53" waitingTime="0.00" waitingCount="0" stopTime="0.00" timeLoss="8.58" rerouteNo="0" devices="tripinfo_NS_49" vType="car" speedFactor="1.02" vaporized=""/>
    <tripinfo id="WE_20" depart="22.00" departLane="1i_0" departPos="4.10" departSpeed="0.00" departDelay="2.00" arrival="134.00" arrivalLane="4o_0" arrivalPos="492.80" arrivalSpeed="9.55" duration="112.00" routeLength="995.70" waitingTime="22.00" waitingCount="1" stopTime="0.00" timeLoss="36.44" rerouteNo="0" devices="tripinfo_WE_20" vType="car" speedFactor="0.94" vaporized=""/>
    <tripinfo id="WE_22" depart="28.00" departLane="1i_0" departPos="4.10" departSpeed="0.00" departDelay="6.00" arrival="136.00" arrivalLane="4o_0" arrivalPos="492.80" arrivalSpeed="11.27" duration="108.00" routeLength="995.70" waitingTime="19.00" waitingCount="1" stopTime="0.00" timeLoss="38.49" rerouteNo="0" devices="tripinfo_WE_22" vType="car" speedFactor="1.03" vaporized=""/>
    <tripinfo id="WE_21" depart="25.00" departLane="1i_0" departPos="4.10" departSpeed="0.00" departDelay="4.00" arrival="141.00" arrivalLane="2o_0" arrivalPos="492.80" arrivalSpeed="9.13" duration="116.00" routeLength="995.90" waitingTime="19.00" waitingCount="1" stopTime="0.00" timeLoss="33.34" rerouteNo="0" devices="tripinfo_WE_21" vType="car" speedFactor="0.86" vaporized=""/>
    <tripinfo id="WE_34" depart="34.00" departLane="1i_0" departPos="4.10" departSpeed="0.00" departDelay="0.00" arrival="144.00" arrivalLane="4o_0" arrivalPos="492.80" arrivalSpeed="9.02" duration="110.00" routeLength="995.70" waitingTime="15.00" waitingCount="1" stopTime="0.00" timeLoss="29.13" rerouteNo="0" devices="tripinfo_WE_34" vType="car" speedFactor="0.88" vaporized=""/>
    <tripinfo id="WE_50" depart="50.00" departLane="1i_0" departPos="4.10" departSpeed="0.00" departDelay="0.00" arrival="146.00" arrivalLane="4o_0" arrivalPos="492.80" arrivalSpeed="10.47" duration="96.00" routeLength="995.70" waitingTime="2.00" waitingCount="1" stopTime="0.00" timeLoss="25.31" rerouteNo="0" devices="tripinfo_WE_50" vType="car" speedFactor="1.01" vaporized=""/>
    <tripinfo id="NS_64" depart="68.00" departLane="2i_0" departPos="4.10" departSpeed="0.00" departDelay="4.00" arrival="155.00" arrivalLane="1o_0" arrivalPos="492.80" arrivalSpeed="10.48" duration="87.00" routeLength="995.90" waitingTime="0.00" waitingCount="0" stopTime="0.00" timeLoss="11.88" rerouteNo="0" devices="tripinfo_NS_64" vType="car" speedFactor="0.95" vaporized=""/>
    <tripinfo id="NS_62" depart="62.00" departLane="2i_0" departPos="4.10" departSpeed="0.00" departDelay="0.00" arrival="159.00" arrivalLane="3o_0" arrivalPos="492.80" arrivalSpeed="8.10" duration="97.00" routeLength="995.70" waitingTime="0.00" waitingCount="0" stopTime="0.00" timeLoss="10.59" rerouteNo="0" devices="tripinfo_NS_62" vType="car" speedFactor="0.83" vaporized=""/>
    <tripinfo id="NS_63" depart="65.00" departLane="2i_0" departPos="4.10" departSpeed="0.00" departDelay="2.00" arrival="160.00" arrivalLane="3o_0" arrivalPos="492.80" arrivalSpeed="9.36" duration="95.00" routeLength="995.70" waitingTime="0.00" waitingCount="0" stopTime="0.00" timeLoss="14.07" rerouteNo="0" devices="tripinfo_NS_63" vType="car" speedFactor="0.87" vaporized=""/>
    <tripinfo id="NS_91" depart="91.00" departLane="2i_0" departPos="4.10" departSpeed="0.00" departDelay="0.00" arrival="160.00" arrivalLane="4o_0" arrivalPos="492.80" arrivalSpeed="12.76" duration="69.00" routeLength="990.53" waitingTime="0.00" waitingCount="0" stopTime="0.00" timeLoss="7.77" rerouteNo="0" devices="tripinfo_NS_91" vType="car" speedFactor="1.15" vaporized=""/>
    <tripinfo id="NS_76" depart="76.00" departLane="2i_0" departPos="4.10" departSpeed="0.00" departDelay="0.00" arrival="162.00" arrivalLane="3o_0" arrivalPos="492.80" arrivalSpeed="9.14" duration="86.00" routeLength="995.70" waitingTime="0.00" waitingCount="0" stopTime="0.00" timeLoss="9.99" rerouteNo="0" devices="tripinfo_NS_76" vType="car" speedFactor="0.93" vaporized=""/>
    <tripinfo id="NS_96" depart="99.00" departLane="2i_0" departPos="4.10" departSpeed="0.00" departDelay="3.00" arrival="179.00" arrivalLane="4o_0" arrivalPos="492.80" arrivalSpeed="12.21" duration="80.00" routeLength="990.53" waitingTime="0.00" waitingCount="0" stopTime="0.00" timeLoss="19.43" rerouteNo="0" devices="tripinfo_NS_96" vType="car" speedFactor="1.17" vaporized=""/>
    <tripinfo id="NS_92" depart="95.00" departLane="2i_0" departPos="10.10" departSpeed="0.00" departDelay="3.00" arrival="184.00" arrivalLane="3o_0" arrivalPos="492.80" arrivalSpeed="10.54" duration="89.00" routeLength="989.70" waitingTime="0.00" waitingCount="0" stopTime="0.00" timeLoss="18.24" rerouteNo="0" devices="tripinfo_NS_92" vType="truck" speedFactor="1.00" vaporized=""/>
    <tripinfo id="NS_97" depart="102.00" departLane="2i_0" departPos="4.10" departSpeed="0.00" departDelay="5.00" arrival="191.00" arrivalLane="3o_0" arrivalPos="492.80" arrivalSpeed="10.38" duration="89.00" routeLength="995.70" waitingTime="0.00" waitingCount="0" stopTime="0.00" timeLoss="15.67" rerouteNo="0" devices="tripinfo_NS_97" vType="car" speedFactor="0.97" vaporized=""/>
    <tripinfo id="WE_97" depart="97.00" departLane="1i_0" departPos="4.10" departSpeed="0.00" departDelay="0.00" arrival="197.00" arrivalLane="4o_0" arrivalPos="492.80" arrivalSpeed="10.17" duration="100.00" routeLength="995.70" waitingTime="18.00" waitingCount="1" stopTime="0.00" timeLoss="30.69" rerouteNo="0" devices="tripinfo_WE_97" vType="car" speedFactor="1.02" vaporized=""/>
    <tripinfo id="NS_107" depart="107.00" departLane="2i_0" departPos="10.10" departSpeed="0.00" departDelay="0.00" arrival="197.00" arrivalLane="3o_0" arrivalPos="492.80" arrivalSpeed="10.14" duration="90.00" routeLength="989.70" waitingTime="0.00" waitingCount="0" stopTime="0.00" timeLoss="16.12" rerouteNo="0" devices="tripinfo_NS_107" vType="truck" speedFactor="0.95" vaporized=""/>
    <tripinfo id="WE_103" depart="103.00" departLane="1i_0" departPos="4.10" departSpeed="0.00" departDelay="0.00" arrival="199.00" arrivalLane="3o_0" arrivalPos="492.80" arrivalSpeed="12.97" duration="96.00" routeLength="990.53" waitingTime="13.00" waitingCount="1" stopTime="0.00" timeLoss="36.50" rerouteNo="0" devices="tripinfo_WE_103" vType="car" speedFactor="1.18" vaporized=""/>
    <tripinfo id="WE_105" depart="106.00" departLane="1i_0" departPos="4.10" departSpeed="0.00" departDelay="1.00" arrival="199.00" arrivalLane="4o_0" arrivalPos="492.80" arrivalSpeed="11.20" duration="93.00" routeLength="995.70" waitingTime="11.00" waitingCount="1" stopTime="0.00" timeLoss="28.43" rerouteNo="0" devices="tripinfo_WE_105" vType="car" speedFactor="1.10" vaporized=""/>
    <tripinfo id="WE_117" depart="117.00" departLane="1i_0" departPos="4.10" departSpeed="0.00" departDelay="0.00" arrival="201.00" arrivalLane="4o_0" arrivalPos="492.80" arrivalSpeed="11.54" duration="84.00" routeLength="995.70" waitingTime="1.00" waitingCount="1" stopTime="0.00" timeLoss="18.46" rerouteNo="0" devices="tripinfo_WE_117" vType="car" speedFactor="1.09" vaporized=""/>
    <tripinfo id="WE_125" depart="125.00" departLane="1i_0" departPos="4.10" departSpeed="0.00" departDelay="0.00" arrival="205.00" arrivalLane="4o_0" arrivalPos="492.80" arrivalSpeed="11.29" duration="80.00" routeLength="995.70" waitingTime="0.00" waitingCount="0" stopTime="0.00" timeLoss="11.60" rerouteNo="0" devices="tripinfo_WE_125" vType="car" speedFactor="1.04" vaporized=""/>
    <tripinfo id="NS_149" depart="149.00" departLane="2i_0" departPos="4.10" departSpeed="0.00" departDelay="0.00" arrival="241.00" arrivalLane="4o_0" arrivalPos="492.80" arrivalSpeed="8.77" duration="92.00" routeLength="990.53" waitingTime="0.00" waitingCount="0" stopTime="0.00" timeLoss="9.20" rerouteNo="0" devices="tripinfo_NS_149" vType="car" speedFactor="0.85" vaporized=""/>
    <tripinfo id="NS_173" depart="173.00" departLane="2i_0" departPos="4.10" departSpeed="0.00" departDelay="0.00" arrival="252.00" arrivalLane="1o_0" arrivalPos="492.80" arrivalSpeed="10.62" duration="79.00" routeLength="995.90" waitingTime="0.00" waitingCount="0" stopTime="0.00" timeLoss="8.03" rerouteNo="0" devices="tripinfo_NS_173" vType="car" speedFactor="1.00" vaporized=""/>
    <tripinfo id="WE_186" depart="186.00" departLane="1i_0" departPos="4.10" departSpeed="0.00" departDelay="0.00" arrival="256.00" arrivalLane="2o_0" arrivalPos="492.80" arrivalSpeed="12.28" duration="70.00" routeLength="995.90" waitingTime="0.00" waitingCount="0" stopTime="0.00" timeLoss="8.04" rerouteNo="0" devices="tripinfo_WE_186" vType="car" speedFactor="1.14" vaporized=""/>
    <tripinfo id="WE_189" depart="189.00" departLane="1i_0" departPos="4.10" departSpeed="0.00" departDelay="0.00" arrival="266.00" arrivalLane="3o_0" arrivalPos="492.80" arrivalSpeed="10.50" duration="77.00" routeLength="990.53" waitingTime="0.00" waitingCount="0" stopTime="0.00" timeLoss="8.23" rerouteNo="0" devices="tripinfo_WE_189" vType="car" speedFactor="1.02" vaporized=""/>
    <tripinfo id="NS_193" depart="193.00" departLane="2i_0" departPos="4.10" departSpeed="0.00" departDelay="0.00" arrival="270.00" arrivalLane="4o_0" arrivalPos="492.80" arrivalSpeed="11.25" duration="77.00" routeLength="990.53" waitingTime="0.00" waitingCount="0" stopTime="0.00" timeLoss="11.45" rerouteNo="0" devices="tripinfo_NS_193" vType="car" speedFactor="1.08" vaporized=""/>
    <tripinfo id="NS_195" depart="195.00" departLane="2i_0" departPos="4.10" departSpeed="0.00" departDelay="0.00" arrival="270.00" arrivalLane="1o_0" arrivalPos="492.80" arrivalSpeed="11.89" duration="75.00" routeLength="995.90" waitingTime="1.00" waitingCount="1" stopTime="0.00" timeLoss="11.79" rerouteNo="0" devices="tripinfo_NS_195" vType="car" speedFactor="1.12" vaporized=""/>
    <tripinfo id="NS_184" depart="184.00" departLane="2i_0" departPos="10.10" departSpeed="0.00" departDelay="0.00" arrival="273.00" arrivalLane="3o_0" arrivalPos="492.80" arrivalSpeed="10.37" duration="89.00" routeLength="989.70" waitingTime="0.00" waitingCount="0" stopTime="0.00" timeLoss="14.60" rerouteNo="0" devices="tripinfo_NS_184" vType="truck" speedFactor="0.95" vaporized=""/>
    <tripinfo id="WE_193" depart="193.00" departLane="1i_0" departPos="4.10" departSpeed="0.00" departDelay="0.00" arrival="281.00" arrivalLane="4o_0" arrivalPos="492.80" arrivalSpeed="10.12" duration="88.00" routeLength="995.70" waitingTime="0.00" waitingCount="0" stopTime="0.00" timeLoss="14.93" rerouteNo="0" devices="tripinfo_WE_193" vType="car" speedFactor="0.97" vaporized=""/>
    <tripinfo id="WE_202" depart="202.00" departLane="1i_0" departPos="4.10" departSpeed="0.00" departDelay="0.00" arrival="287.00" arrivalLane="4o_0" arrivalPos="492.80" arrivalSpeed="9.12" duration="85.00" routeLength="995.70" waitingTime="0.00" waitingCount="0" stopTime="0.00" timeLoss="9.60" rerouteNo="0" devices="tripinfo_WE_202" vType="car" speedFactor="0.94" vaporized=""/>
    <tripinfo id="WE_216" depart="216.00" departLane="1i_0" departPos="4.10" departSpeed="0.00" departDelay="0.00" arrival="293.00" arrivalLane="2o_0" arrivalPos="492.80" arrivalSpeed="11.06" duration="77.00" routeLength="995.90" waitingTime="0.00" waitingCount="0" stopTime="0.00" timeLoss="8.55" rerouteNo="0" devices="tripinfo_WE_216" vType="car" speedFactor="1.04" vaporized=""/>
    <tripinfo id="NS_217" depart="217.00" departLane="2i_0" departPos="4.10" departSpeed="0.00" departDelay="0.00" arrival="294.00" arrivalLane="4o_0" arrivalPos="492.80" arrivalSpeed="10.31" duration="77.00" routeLength="990.53" waitingTime="0.00" waitingCount="0" stopTime="0.00" timeLoss="8.06" rerouteNo="0" devices="tripinfo_NS_217" vType="car" speedFactor="1.02" vaporized=""/>
    <tripinfo id="NS_258" depart="258.00" departLane="2i_0" departPos="4.10" departSpeed="0.00" departDelay="0.00" arrival="339.00" arrivalLane="3o_0" arrivalPos="492.80" arrivalSpeed="11.16" duration="81.00" routeLength="995.70" waitingTime="0.00" waitingCount="0" stopTime="0.00" timeLoss="10.61" rerouteNo="0" devices="tripinfo_NS_258" vType="car" speedFactor="1.01" vaporized=""/>
    <tripinfo id="WE_267" depart="267.00" departLane="1i_0" departPos="4.10" departSpeed="0.00" departDelay="0.00" arrival="344.00" arrivalLane="2o_0" arrivalPos="492.80" arrivalSpeed="10.60" duration="77.00" routeLength="995.90" waitingTime="0.00" waitingCount="0" stopTime="0.00" timeLoss="7.21" rerouteNo="0" devices="tripinfo_WE_267" vType="car" speedFactor="1.02" vaporized=""/>
    <tripinfo id="WE_275" depart="275.00" departLane="1i_0" departPos="4.10" departSpeed="0.00" departDelay="0.00" arrival="346.00" arrivalLane="2o_0" arrivalPos="492.80" arrivalSpeed="12.41" duration="71.00" routeLength="995.90" waitingTime="0.00" waitingCount="0" stopTime="0.00" timeLoss="8.96" rerouteNo="0" devices="tripinfo_WE_275" vType="car" speedFactor="1.15" vaporized=""/>
    <tripinfo id="NS_278" depart="278.00" departLane="2i_0" departPos="4.10" departSpeed="0.00" departDelay="0.00" arrival="361.00" arrivalLane="3o_0" arrivalPos="492.80" arrivalSpeed="10.49" duration="83.00" routeLength="995.70" waitingTime="0.00" waitingCount="0" stopTime="0.00" timeLoss="10.43" rerouteNo="0" devices="tripinfo_NS_278" vType="car" speedFactor="0.98" vaporized=""/>
    <tripinfo id="NS_281" depart="281.00" departLane="2i_0" departPos="4.10" departSpeed="0.00" departDelay="0.00" arrival="361.00" arrivalLane="4o_0" arrivalPos="492.80" arrivalSpeed="10.53" duration="80.00" routeLength="990.53" waitingTime="0.00" waitingCount="0" stopTime="0.00" timeLoss="9.54" rerouteNo="0" devices="tripinfo_NS_281" vType="car" speedFactor="1.00" vaporized=""/>
    <tripinfo id="NS_285" depart="285.00" departLane="2i_0" departPos="4.10" departSpeed="0.00" departDelay="0.00" arrival="366.00" arrivalLane="3o_0" arrivalPos="492.80" arrivalSpeed="9.92" duration="81.00" routeLength="995.70" waitingTime="0.00" waitingCount="0" stopTime="0.00" timeLoss="10.36" rerouteNo="0" devices="tripinfo_NS_285" vType="car" speedFactor="1.01" vaporized=""/>
    <tripinfo id="NS_286" depart="288.00" departLane="2i_0" departPos="4.10" departSpeed="0.00" departDelay="2.00" arrival="366.00" arrivalLane="1o_0" arrivalPos="492.80" arrivalSpeed="10.83" duration="78.00" routeLength="995.90" waitingTime="0.00" waitingCount="0" stopTime="0.00" timeLoss="8.81" rerouteNo="0" devices="tripinfo_NS_286" vType="car" speedFactor="1.02" vaporized=""/>
    <tripinfo id="WE_293" depart="293.00" departLane="1i_0" departPos="4.10" departSpeed="0.00" departDelay="0.00" arrival="366.00" arrivalLane="2o_0" arrivalPos="492.80" arrivalSpeed="11.97" duration="73.00" routeLength="995.90" waitingTime="0.00" waitingCount="0" stopTime="0.00" timeLoss="7.59" rerouteNo="0" devices="tripinfo_WE_293" vType="car" speedFactor="1.09" vaporized=""/>
    <tripinfo id="WE_301" depart="301.00" departLane="1i_0" departPos="4.10" departSpeed="0.00" departDelay="0.00" arrival="376.00" arrivalLane="2o_0" arrivalPos="492.80" arrivalSpeed="11.71" duration="75.00" routeLength="995.90" waitingTime="0.00" waitingCount="0" stopTime="0.00" timeLoss="7.88" rerouteNo="0" devices="tripinfo_WE_301" vType="car" speedFactor="1.06" vaporized=""/>
    <tripinfo id="EW_3" depart="3.00" departLane="4i_0" departPos="4.10" departSpeed="0.00" departDelay="0.00" arrival="391.00" arrivalLane="3o_0" arrivalPos="492.80" arrivalSpeed="9.60" duration="388.00" routeLength="981.50" waitingTime="301.00" waitingCount="1" stopTime="0.00" timeLoss="313.51" rerouteNo="0" devices="tripinfo_EW_3" vType="car" speedFactor="0.94" vaporized=""/>
    <tripinfo id="SN_14" depart="14.00" departLane="3i_0" departPos="4.10" departSpeed="0.00" departDelay="0.00" arrival="393.00" arrivalLane="2o_0" arrivalPos="492.80" arrivalSpeed="11.09" duration="379.00" routeLength="990.53" waitingTime="298.00" waitingCount="1" stopTime="0.00" timeLoss="310.52" rerouteNo="0" devices="tripinfo_SN_14" vType="car" speedFactor="1.03" vaporized=""/>
    <tripinfo id="EW_4" depart="6.00" departLane="4i_0" departPos="4.10" departSpeed="0.00" departDelay="2.00" arrival="394.00" arrivalLane="1o_0" arrivalPos="492.80" arrivalSpeed="10.99" duration="388.00" routeLength="990.53" waitingTime="299.00" waitingCount="1" stopTime="0.00" timeLoss="318.00" rerouteNo="0" devices="tripinfo_EW_4" vType="car" speedFactor="1.01" vaporized=""/>
    <tripinfo id="WE_302" depart="304.00" departLane="1i_0" departPos="4.10" departSpeed="0.00" departDelay="2.00" arrival="394.00" arrivalLane="4o_0" arrivalPos="492.80" arrivalSpeed="9.93" duration="90.00" routeLength="995.70" waitingTime="6.00" waitingCount="1" stopTime="0.00" timeLoss="19.63" rerouteNo="0" devices="tripinfo_WE_302" vType="car" speedFactor="1.01" vaporized=""/>
    <tripinfo id="WE_308" depart="308.00" departLane="1i_0" departPos="4.10" departSpeed="0.00" departDelay="0.00" arrival="395.00" arrivalLane="2o_0" arrivalPos="492.80" arrivalSpeed="12.31" duration="87.00" routeLength="995.90" waitingTime="5.00" waitingCount="1" stopTime="0.00" timeLoss="23.42" rerouteNo="0" devices="tripinfo_WE_308" vType="car" speedFactor="1.12" vaporized=""/>
    <tripinfo id="WE_312" depart="312.00" departLane="1i_0" departPos="4.10" departSpeed="0.00" departDelay="0.00" arrival="397.00" arrivalLane="2o_0" arrivalPos="492.80" arrivalSpeed="11.56" duration="85.00" routeLength="995.90" waitingTime="3.00" waitingCount="1" stopTime="0.00" timeLoss="18.02" rerouteNo="0" devices="tripinfo_WE_312" vType="car" speedFactor="1.06" vaporized=""/>
    <tripinfo id="NS_319" depart="319.00" departLane="2i_0" departPos="4.10" departSpeed="0.00" departDelay="0.00" arrival="401.00" arrivalLane="1o_0" arrivalPos="492.80" arrivalSpeed="9.89" duration="82.00" routeLength="995.90" waitingTime="0.00" waitingCount="0" stopTime="0.00" timeLoss="7.64" rerouteNo="0" devices="tripinfo_NS_319" vType="car" speedFactor="0.95" vaporized=""/>
    <tripinfo id="NS_292" depart="293.00" departLane="2i_0" departPos="4.10" departSpeed="0.00" departDelay="1.00" arrival="402.00" arrivalLane="3o_0" arrivalPos="492.80" arrivalSpeed="8.25" duration="109.00" routeLength="995.70" waitingTime="11.00" waitingCount="1" stopTime="0.00" timeLoss="24.31" rerouteNo="0" devices="tripinfo_NS_292" vType="car" speedFactor="0.83" vaporized=""/>
    <tripinfo id="NS_325" depart="325.00" departLane="2i_0" departPos="4.10" departSpeed="0.00" departDelay="0.00" arrival="403.00" arrivalLane="4o_0" arrivalPos="492.80" arrivalSpeed="10.94" duration="78.00" routeLength="990.53" waitingTime="0.00" waitingCount="0" stopTime="0.00" timeLoss="7.80" rerouteNo="0" devices="tripinfo_NS_325" vType="car" speedFactor="1.01" vaporized=""/>
    <tripinfo id="EW_11" depart="11.00" departLane="4i_0" departPos="4.10" departSpeed="0.00" departDelay="0.00" arrival="404.00" arrivalLane="1o_0" arrivalPos="492.80" arrivalSpeed="11.57" duration="393.00" routeLength="990.53" waitingTime="307.00" waitingCount="2" stopTime="0.00" timeLoss="327.44" rerouteNo="0" devices="tripinfo_EW_11" vType="car" speedFactor="1.08" vaporized=""/>
    <tripinfo id="EW_17" depart="17.00" departLane="4i_0" departPos="10.10" departSpeed="0.00" departDelay="0.00" arrival="410.00" arrivalLane="2o_0" arrivalPos="492.80" arrivalSpeed="11.26" duration="393.00" routeLength="989.70" waitingTime="295.00" waitingCount="2" stopTime="0.00" timeLoss="324.37" rerouteNo="0" devices="tripinfo_EW_17" vType="truck" speedFactor="1.02" vaporized=""/>
    <tripinfo id="EW_24" depart="24.00" departLane="4i_0" departPos="4.10" departSpeed="0.00" departDelay="0.00" arrival="411.00" arrivalLane="1o_0" arrivalPos="492.80" arrivalSpeed="11.99" duration="387.00" routeLength="990.53" waitingTime="291.00" waitingCount="2" stopTime="0.00" timeLoss="323.73" rerouteNo="0" devices="tripinfo_EW_24" vType="car" speedFactor="1.12" vaporized=""/>
    <tripinfo id="EW_21" depart="21.00" departLane="4i_0" departPos="4.10" departSpeed="0.00" departDelay="0.00" arrival="413.00" arrivalLane="2o_0" arrivalPos="492.80" arrivalSpeed="11.34" duration="392.00" routeLength="995.70" waitingTime="292.00" waitingCount="2" stopTime="0.00" timeLoss="326.77" rerouteNo="0" devices="tripinfo_EW_21" vType="car" speedFactor="1.09" vaporized=""/>
    <tripinfo id="EW_43" depart="45.00" departLane="4i_0" departPos="4.10" departSpeed="0.00" departDelay="2.00" arrival="413.00" arrivalLane="1o_0" arrivalPos="492.80" arrivalSpeed="12.38" duration="368.00" routeLength="990.53" waitingTime="274.00" waitingCount="2" stopTime="0.00" timeLoss="307.01" rerouteNo="0" devices="tripinfo_EW_43" vType="car" speedFactor="1.16" vaporized=""/>
    <tripinfo id="EW_42" depart="42.00" departLane="4i_0" departPos="4.10" departSpeed="0.00" departDelay="0.00" arrival="422.00" arrivalLane="3o_0" arrivalPos="492.80" arrivalSpeed="9.96" duration="380.00" routeLength="995.90" waitingTime="276.00" waitingCount="2" stopTime="0.00" timeLoss="304.00" rerouteNo="0" devices="tripinfo_EW_42" vType="car" speedFactor="0.94" vaporized=""/>
    <tripinfo id="EW_89" depart="89.00" departLane="4i_0" departPos="4.10" departSpeed="0.00" departDelay="0.00" arrival="423.00" arrivalLane="3o_0" arrivalPos="492.80" arrivalSpeed="12.16" duration="334.00" routeLength="995.90" waitingTime="238.00" waitingCount="2" stopTime="0.00" timeLoss="274.07" rerouteNo="0" devices="tripinfo_EW_89" vType="car" speedFactor="1.18" vaporized=""/>
    <tripinfo id="EW_59" depart="59.00" departLane="4i_0" departPos="4.10" departSpeed="0.00" departDelay="0.00" arrival="424.00" arrivalLane="2o_0" arrivalPos="492.80" arrivalSpeed="10.63" duration="365.00" routeLength="995.70" waitingTime="261.00" waitingCount="2" stopTime="0.00" timeLoss="292.51" rerouteNo="0" devices="tripinfo_EW_59" vType="car" speedFactor="0.97" vaporized=""/>
    <tripinfo id="EW_71" depart="71.00" departLane="4i_0" departPos="10.10" departSpeed="0.00" departDelay="0.00" arrival="427.00" arrivalLane="2o_0" arrivalPos="492.80" arrivalSpeed="11.40" duration="356.00" routeLength="989.70" waitingTime="245.00" waitingCount="2" stopTime="0.00" timeLoss="288.69" rerouteNo="0" devices="tripinfo_EW_71" vType="truck" speedFactor="1.07" vaporized=""/>
    <tripinfo id="EW_126" depart="127.00" departLane="4i_0" departPos="4.10" departSpeed="0.00" departDelay="1.00" arrival="432.00" arrivalLane="2o_0" arrivalPos="492.80" arrivalSpeed="10.32" duration="305.00" routeLength="995.70" waitingTime="198.00" waitingCount="2" stopTime="0.00" timeLoss="236.59" rerouteNo="0" devices="tripinfo_EW_126" vType="car" speedFactor="1.04" vaporized=""/>
    <tripinfo id="EW_172" depart="172.00" departLane="4i_0" departPos="4.10" departSpeed="0.00" departDelay="0.00" arrival="434.00" arrivalLane="1o_0" arrivalPos="492.80" arrivalSpeed="11.47" duration="262.00" routeLength="990.53" waitingTime="157.00" waitingCount="2" stopTime="0.00" timeLoss="197.17" rerouteNo="0" devices="tripinfo_EW_172" vType="car" speedFactor="1.10" vaporized=""/>
    <tripinfo id="EW_136" depart="136.00" departLane="4i_0" departPos="4.10" departSpeed="0.00" departDelay="0.00" arrival="435.00" arrivalLane="3o_0" arrivalPos="492.80" arrivalSpeed="10.95" duration="299.00" routeLength="995.90" waitingTime="191.00" waitingCount="2" stopTime="0.00" timeLoss="227.93" rerouteNo="0" devices="tripinfo_EW_136" vType="car" speedFactor="1.00" vaporized=""/>
    <tripinfo id="EW_182" depart="182.00" departLane="4i_0" departPos="4.10" departSpeed="0.00" departDelay="0.00" arrival="440.00" arrivalLane="1o_0" arrivalPos="492.80" arrivalSpeed="10.76" duration="258.00" routeLength="990.53" waitingTime="148.00" waitingCount="2" stopTime="0.00" timeLoss="187.26" rerouteNo="0" devices="tripinfo_EW_182" vType="car" speedFactor="1.00" vaporized=""/>
    <tripinfo id="EW_145" depart="146.00" departLane="4i_0" departPos="4.10" departSpeed="0.00" departDelay="1.00" arrival="444.00" arrivalLane="2o_0" arrivalPos="492.80" arrivalSpeed="9.11" duration="298.00" routeLength="995.70" waitingTime="179.00" waitingCount="2" stopTime="0.00" timeLoss="217.45" rerouteNo="0" devices="tripinfo_EW_145" vType="car" speedFactor="0.88" vaporized=""/>
    <tripinfo id="EW_208" depart="208.00" departLane="4i_0" departPos="4.10" departSpeed="0.00" departDelay="0.00" arrival="447.00" arrivalLane="3o_0" arrivalPos="492.80" arrivalSpeed="9.69" duration="239.00" routeLength="995.90" waitingTime="123.00" waitingCount="2" stopTime="0.00" timeLoss="160.93" rerouteNo="0" devices="tripinfo_EW_208" vType="car" speedFactor="0.91" vaporized=""/>
    <tripinfo id="EW_219" depart="219.00" departLane="4i_0" departPos="4.10" departSpeed="0.00" departDelay="0.00" arrival="449.00" arrivalLane="3o_0" arrivalPos="492.80" arrivalSpeed="10.19" duration="230.00" routeLength="995.90" waitingTime="114.00" waitingCount="1" stopTime="0.00" timeLoss="160.68" rerouteNo="0" devices="tripinfo_EW_219" vType="car" speedFactor="1.02" vaporized=""/>
    <tripinfo id="EW_212" depart="212.00" departLane="4i_0" departPos="4.10" departSpeed="0.00" departDelay="0.00" arrival="450.00" arrivalLane="2o_0" arrivalPos="492.80" arrivalSpeed="9.08" duration="238.00" routeLength="995.70" waitingTime="118.00" waitingCount="1" stopTime="0.00" timeLoss="160.36" rerouteNo="0" devices="tripinfo_EW_212" vType="car" speedFactor="0.91" vaporized=""/>
    <tripinfo id="EW_221" depart="222.00" departLane="4i_0" departPos="4.10" departSpeed="0.00" departDelay="1.00" arrival="450.00" arrivalLane="1o_0" arrivalPos="492.80" arrivalSpeed="9.85" duration="228.00" routeLength="990.53" waitingTime="111.00" waitingCount="1" stopTime="0.00" timeLoss="154.99" rerouteNo="0" devices="tripinfo_EW_221" vType="car" speedFactor="0.97" vaporized=""/>
    <tripinfo id="EW_253" depart="253.00" departLane="4i_0" departPos="4.10" departSpeed="0.00" departDelay="0.00" arrival="452.00" arrivalLane="1o_0" arrivalPos="492.80" arrivalSpeed="10.56" duration="199.00" routeLength="990.53" waitingTime="84.00" waitingCount="1" stopTime="0.00" timeLoss="130.11" rerouteNo="0" devices="tripinfo_EW_253" vType="car" speedFactor="1.03" vaporized=""/>
    <tripinfo id="EW_258" depart="258.00" departLane="4i_0" departPos="4.10" departSpeed="0.00" departDelay="0.00" arrival="453.00" arrivalLane="3o_0" arrivalPos="492.80" arrivalSpeed="10.13" duration="195.00" routeLength="995.90" waitingTime="79.00" waitingCount="1" stopTime="0.00" timeLoss="122.98" rerouteNo="0" devices="tripinfo_EW_258" vType="car" speedFactor="0.98" vaporized=""/>
    <tripinfo id="EW_261" depart="261.00" departLane="4i_0" departPos="4.10" departSpeed="0.00" departDelay="0.00" arrival="453.00" arrivalLane="1o_0" arrivalPos="492.80" arrivalSpeed="10.95" duration="192.00" routeLength="990.53" waitingTime="77.00" waitingCount="1" stopTime="0.00" timeLoss="126.98" rerouteNo="0" devices="tripinfo_EW_261" vType="car" speedFactor="1.09" vaporized=""/>