<?xml version="1.0" encoding="UTF-8"?>

<!-- generated on 2024-05-05 22:04:30 by Eclipse SUMO sumo Version 1.19.0
<configuration xmlns:xsi="http://www.w3.org/2001/XMLSchema-instance" xsi:noNamespaceSchemaLocation="http://sumo.dlr.de/xsd/sumoConfiguration.xsd">

    <input>
        <net-file value="twoone.net.xml"/>
        <route-files value="route_gen.rou.xml"/>
    </input>

    <output>
        <tripinfo-output value="tripinfo_epi191.xml"/>
    </output>

    <report>
        <no-warnings value="true"/>
    </report>

    <traci_server>
        <remote-port value="54199"/>
    </traci_server>

</configuration>
-->

<tripinfos xmlns:xsi="http://www.w3.org/2001/XMLSchema-instance" xsi:noNamespaceSchemaLocation="http://sumo.dlr.de/xsd/tripinfo_file.xsd">
    <tripinfo id="WE_0" depart="0.00" departLane="1i_0" departPos="4.10" departSpeed="0.00" departDelay="0.00" arrival="76.00" arrivalLane="4o_0" arrivalPos="492.80" arrivalSpeed="11.03" duration="76.00" routeLength="995.70" waitingTime="0.00" waitingCount="0" stopTime="0.00" timeLoss="9.40" rerouteNo="0" devices="tripinfo_WE_0" vType="car" speedFactor="1.06" vaporized=""/>
    <tripinfo id="NS_5" depart="5.00" departLane="2i_0" departPos="4.10" departSpeed="0.00" departDelay="0.00" arrival="88.00" arrivalLane="4o_0" arrivalPos="492.80" arrivalSpeed="9.58" duration="83.00" routeLength="990.53" waitingTime="0.00" waitingCount="0" stopTime="0.00" timeLoss="8.00" rerouteNo="0" devices="tripinfo_NS_5" vType="car" speedFactor="0.94" vaporized=""/>
    <tripinfo id="NS_11" depart="11.00" departLane="2i_0" departPos="4.10" departSpeed="0.00" departDelay="0.00" arrival="90.00" arrivalLane="4o_0" arrivalPos="492.80" arrivalSpeed="11.05" duration="79.00" routeLength="990.53" waitingTime="0.00" waitingCount="0" stopTime="0.00" timeLoss="13.43" rerouteNo="0" devices="tripinfo_NS_11" vType="car" speedFactor="1.08" vaporized=""/>
    <tripinfo id="WE_7" depart="7.00" departLane="1i_0" departPos="4.10" departSpeed="0.00" departDelay="0.00" arrival="92.00" arrivalLane="4o_0" arrivalPos="492.80" arrivalSpeed="10.34" duration="85.00" routeLength="995.70" waitingTime="0.00" waitingCount="0" stopTime="0.00" timeLoss="14.57" rerouteNo="0" devices="tripinfo_WE_7" vType="car" speedFactor="1.01" vaporized=""/>
    <tripinfo id="NS_18" depart="18.00" departLane="2i_0" departPos="4.10" departSpeed="0.00" departDelay="0.00" arrival="95.00" arrivalLane="4o_0" arrivalPos="492.80" arrivalSpeed="11.21" duration="77.00" routeLength="990.53" waitingTime="0.00" waitingCount="0" stopTime="0.00" timeLoss="8.29" rerouteNo="0" devices="tripinfo_NS_18" vType="car" speedFactor="1.03" vaporized=""/>
    <tripinfo id="SN_19" depart="19.00" departLane="3i_0" departPos="4.10" departSpeed="0.00" departDelay="0.00" arrival="97.00" arrivalLane="1o_0" arrivalPos="492.80" arrivalSpeed="11.58" duration="78.00" routeLength="995.70" waitingTime="0.00" waitingCount="0" stopTime="0.00" timeLoss="10.34" rerouteNo="0" devices="tripinfo_SN_19" vType="car" speedFactor="1.05" vaporized=""/>
    <tripinfo id="NS_24" depart="24.00" departLane="2i_0" departPos="4.10" departSpeed="0.00" departDelay="0.00" arrival="108.00" arrivalLane="1o_0" arrivalPos="492.80" arrivalSpeed="10.39" duration="84.00" routeLength="995.90" waitingTime="0.00" waitingCount="0" stopTime="0.00" timeLoss="8.58" rerouteNo="0" devices="tripinfo_NS_24" vType="car" speedFactor="0.94" vaporized=""/>
    <tripinfo id="NS_29" depart="29.00" departLane="2i_0" departPos="10.10" departSpeed="0.00" departDelay="0.00" arrival="111.00" arrivalLane="1o_0" arrivalPos="492.80" arrivalSpeed="11.42" duration="82.00" routeLength="989.90" waitingTime="0.00" waitingCount="0" stopTime="0.00" timeLoss="13.75" rerouteNo="0" devices="tripinfo_NS_29" vType="truck" speedFactor="1.05" vaporized=""/>
    <tripinfo id="NS_40" depart="40.00" departLane="2i_0" departPos="4.10" departSpeed="0.00" departDelay="0.00" arrival="115.00" arrivalLane="4o_0" arrivalPos="492.80" arrivalSpeed="11.15" duration="75.00" routeLength="990.53" waitingTime="0.00" waitingCount="0" stopTime="0.00" timeLoss="7.64" rerouteNo="0" devices="tripinfo_NS_40" vType="car" speedFactor="1.05" vaporized=""/>
    <tripinfo id="WE_27" depart="27.00" departLane="1i_0" departPos="4.10" departSpeed="0.00" departDelay="0.00" arrival="117.00" arrivalLane="3o_0" arrivalPos="492.80" arrivalSpeed="9.11" duration="90.00" routeLength="990.53" waitingTime="0.00" waitingCount="0" stopTime="0.00" timeLoss="7.68" rerouteNo="0" devices="tripinfo_WE_27" vType="car" speedFactor="0.86" vaporized=""/>
    <tripinfo id="SN_23" depart="23.00" departLane="3i_0" departPos="4.10" departSpeed="0.00" departDelay="0.00" arrival="122.00" arrivalLane="2o_0" arrivalPos="492.80" arrivalSpeed="9.54" duration="99.00" routeLength="990.53" waitingTime="6.00" waitingCount="1" stopTime="0.00" timeLoss="18.81" rerouteNo="0" devices="tripinfo_SN_23" vType="car" speedFactor="0.89" vaporized=""/>
    <tripinfo id="EW_19" depart="19.00" departLane="4i_0" departPos="4.10" departSpeed="0.00" departDelay="0.00" arrival="126.00" arrivalLane="3o_0" arrivalPos="492.80" arrivalSpeed="8.49" duration="107.00" routeLength="995.90" waitingTime="8.00" waitingCount="1" stopTime="0.00" timeLoss="21.30" rerouteNo="0" devices="tripinfo_EW_19" vType="car" speedFactor="0.83" vaporized=""/>
    <tripinfo id="WE_35" depart="35.00" departLane="1i_0" departPos="4.10" departSpeed="0.00" departDelay="0.00" arrival="127.00" arrivalLane="3o_0" arrivalPos="492.80" arrivalSpeed="10.20" duration="92.00" routeLength="990.53" waitingTime="0.00" waitingCount="0" stopTime="0.00" timeLoss="23.47" rerouteNo="0" devices="tripinfo_WE_35" vType="car" speedFactor="1.03" vaporized=""/>
    <tripinfo id="WE_48" depart="48.00" departLane="1i_0" departPos="4.10" departSpeed="0.00" departDelay="0.00" arrival="127.00" arrivalLane="2o_0" arrivalPos="492.80" arrivalSpeed="10.18" duration="79.00" routeLength="995.90" waitingTime="0.00" waitingCount="0" stopTime="0.00" timeLoss="7.61" rerouteNo="0" devices="tripinfo_WE_48" vType="car" speedFactor="0.99" vaporized=""/>
    <tripinfo id="WE_42" depart="42.00" departLane="1i_0" departPos="4.10" departSpeed="0.00" departDelay="0.00" arrival="129.00" arrivalLane="3o_0" arrivalPos="492.80" arrivalSpeed="11.48" duration="87.00" routeLength="990.53" waitingTime="0.00" waitingCount="0" stopTime="0.00" timeLoss="24.00" rerouteNo="0" devices="tripinfo_WE_42" vType="car" speedFactor="1.12" vaporized=""/>
    <tripinfo id="WE_51" depart="53.00" departLane="1i_0" departPos="4.10" departSpeed="0.00" departDelay="2.00" arrival="137.00" arrivalLane="3o_0" arrivalPos="492.80" arrivalSpeed="9.88" duration="84.00" routeLength="990.53" waitingTime="0.00" waitingCount="0" stopTime="0.00" timeLoss="8.68" rerouteNo="0" devices="tripinfo_WE_51" vType="car" speedFactor="0.94" vaporized=""/>
    <tripinfo id="WE_49" depart="50.00" departLane="1i_0" departPos="4.10" departSpeed="0.00" departDelay="1.00" arrival="139.00" arrivalLane="2o_0" arrivalPos="492.80" arrivalSpeed="8.69" duration="89.00" routeLength="995.90" waitingTime="0.00" waitingCount="0" stopTime="0.00" timeLoss="8.56" rerouteNo="0" devices="tripinfo_WE_49" vType="car" speedFactor="0.88" vaporized=""/>
    <tripinfo id="NS_57" depart="57.00" departLane="2i_0" departPos="4.10" departSpeed="0.00" departDelay="0.00" arrival="139.00" arrivalLane="4o_0" arrivalPos="492.80" arrivalSpeed="11.04" duration="82.00" routeLength="990.53" waitingTime="0.00" waitingCount="0" stopTime="0.00" timeLoss="12.74" rerouteNo="0" devices="tripinfo_NS_57" vType="car" speedFactor="1.02" vaporized=""/>
    <tripinfo id="WE_55" depart="56.00" departLane="1i_0" departPos="4.10" departSpeed="0.00" departDelay="1.00" arrival="141.00" arrivalLane="4o_0" arrivalPos="492.80" arrivalSpeed="12.20" duration="85.00" routeLength="995.70" waitingTime="0.00" waitingCount="0" stopTime="0.00" timeLoss="23.35" rerouteNo="0" devices="tripinfo_WE_55" vType="car" speedFactor="1.16" vaporized=""/>
    <tripinfo id="SN_49" depart="49.00" departLane="3i_0" departPos="4.10" departSpeed="0.00" departDelay="0.00" arrival="142.00" arrivalLane="2o_0" arrivalPos="492.80" arrivalSpeed="9.75" duration="93.00" routeLength="990.53" waitingTime="2.00" waitingCount="1" stopTime="0.00" timeLoss="17.64" rerouteNo="0" devices="tripinfo_SN_49" vType="car" speedFactor="0.94" vaporized=""/>
    <tripinfo id="NS_48" depart="48.00" departLane="2i_0" departPos="4.10" departSpeed="0.00" departDelay="0.00" arrival="143.00" arrivalLane="3o_0" arrivalPos="492.80" arrivalSpeed="10.11" duration="95.00" routeLength="995.70" waitingTime="4.00" waitingCount="1" stopTime="0.00" timeLoss="17.98" rerouteNo="0" devices="tripinfo_NS_48" vType="car" speedFactor="0.93" vaporized=""/>
    <tripinfo id="WE_64" depart="64.00" departLane="1i_0" departPos="4.10" departSpeed="0.00" departDelay="0.00" arrival="143.00" arrivalLane="2o_0" arrivalPos="492.80" arrivalSpeed="10.73" duration="79.00" routeLength="995.90" waitingTime="0.00" waitingCount="0" stopTime="0.00" timeLoss="8.99" rerouteNo="0" devices="tripinfo_WE_64" vType="car" speedFactor="1.01" vaporized=""/>
    <tripinfo id="SN_65" depart="65.00" departLane="3i_0" departPos="4.10" departSpeed="0.00" departDelay="0.00" arrival="154.00" arrivalLane="4o_0" arrivalPos="492.80" arrivalSpeed="10.76" duration="89.00" routeLength="995.90" waitingTime="3.00" waitingCount="1" stopTime="0.00" timeLoss="15.71" rerouteNo="0" devices="tripinfo_SN_65" vType="car" speedFactor="0.97" vaporized=""/>
    <tripinfo id="WE_67" depart="67.00" departLane="1i_0" departPos="4.10" departSpeed="0.00" departDelay="0.00" arrival="155.00" arrivalLane="3o_0" arrivalPos="492.80" arrivalSpeed="9.66" duration="88.00" routeLength="990.53" waitingTime="0.00" waitingCount="0" stopTime="0.00" timeLoss="8.30" rerouteNo="0" devices="tripinfo_WE_67" vType="car" speedFactor="0.89" vaporized=""/>
    <tripinfo id="EW_70" depart="72.00" departLane="4i_0" departPos="4.10" departSpeed="0.00" departDelay="2.00" arrival="162.00" arrivalLane="2o_0" arrivalPos="492.80" arrivalSpeed="9.30" duration="90.00" routeLength="995.70" waitingTime="0.00" waitingCount="0" stopTime="0.00" timeLoss="12.21" rerouteNo="0" devices="tripinfo_EW_70" vType="car" speedFactor="0.92" vaporized=""/>
    <tripinfo id="NS_69" depart="69.00" departLane="2i_0" departPos="4.10" departSpeed="0.00" departDelay="0.00" arrival="163.00" arrivalLane="4o_0" arrivalPos="492.80" arrivalSpeed="9.69" duration="94.00" routeLength="990.53" waitingTime="0.00" waitingCount="0" stopTime="0.00" timeLoss="12.96" rerouteNo="0" devices="tripinfo_NS_69" vType="car" speedFactor="0.87" vaporized=""/>
    <tripinfo id="EW_69" depart="69.00" departLane="4i_0" departPos="4.10" departSpeed="0.00" departDelay="0.00" arrival="165.00" arrivalLane="3o_0" arrivalPos="492.80" arrivalSpeed="8.37" duration="96.00" routeLength="995.90" waitingTime="0.00" waitingCount="0" stopTime="0.00" timeLoss="9.82" rerouteNo="0" devices="tripinfo_EW_69" vType="car" speedFactor="0.83" vaporized=""/>
    <tripinfo id="NS_73" depart="73.00" departLane="2i_0" departPos="4.10" departSpeed="0.00" departDelay="0.00" arrival="165.00" arrivalLane="4o_0" arrivalPos="492.80" arrivalSpeed="10.32" duration="92.00" routeLength="990.53" waitingTime="0.00" waitingCount="0" stopTime="0.00" timeLoss="17.11" rerouteNo="0" devices="tripinfo_NS_73" vType="car" speedFactor="0.95" vaporized=""/>
    <tripinfo id="NS_87" depart="87.00" departLane="2i_0" departPos="4.10" departSpeed="0.00" departDelay="0.00" arrival="166.00" arrivalLane="4o_0" arrivalPos="492.80" arrivalSpeed="11.22" duration="79.00" routeLength="990.53" waitingTime="0.00" waitingCount="0" stopTime="0.00" timeLoss="19.19" rerouteNo="0" devices="tripinfo_NS_87" vType="car" speedFactor="1.18" vaporized=""/>
    <tripinfo id="NS_81" depart="81.00" departLane="2i_0" departPos="4.10" departSpeed="0.00" departDelay="0.00" arrival="167.00" arrivalLane="3o_0" arrivalPos="492.80" arrivalSpeed="10.00" duration="86.00" routeLength="995.70" waitingTime="0.00" waitingCount="0" stopTime="0.00" timeLoss="9.69" rerouteNo="0" devices="tripinfo_NS_81" vType="car" speedFactor="0.93" vaporized=""/>
    <tripinfo id="WE_96" depart="97.00" departLane="1i_0" departPos="4.10" departSpeed="0.00" departDelay="1.00" arrival="175.00" arrivalLane="4o_0" arrivalPos="492.80" arrivalSpeed="12.82" duration="78.00" routeLength="995.70" waitingTime="3.00" waitingCount="1" stopTime="0.00" timeLoss="15.87" rerouteNo="0" devices="tripinfo_WE_96" vType="car" speedFactor="1.15" vaporized=""/>
    <tripinfo id="NS_98" depart="98.00" departLane="2i_0" departPos="4.10" departSpeed="0.00" departDelay="0.00" arrival="176.00" arrivalLane="1o_0" arrivalPos="492.80" arrivalSpeed="11.14" duration="78.00" routeLength="995.90" waitingTime="0.00" waitingCount="0" stopTime="0.00" timeLoss="7.72" rerouteNo="0" devices="tripinfo_NS_98" vType="car" speedFactor="1.01" vaporized=""/>
    <tripinfo id="WE_100" depart="100.00" departLane="1i_0" departPos="10.10" departSpeed="0.00" departDelay="0.00" arrival="182.00" arrivalLane="3o_0" arrivalPos="492.80" arrivalSpeed="11.20" duration="82.00" routeLength="984.53" waitingTime="0.00" waitingCount="0" stopTime="0.00" timeLoss="12.01" rerouteNo="0" devices="tripinfo_WE_100" vType="truck" speedFactor="1.01" vaporized=""/>
    <tripinfo id="NS_111" depart="111.00" departLane="2i_0" departPos="4.10" departSpeed="0.00" departDelay="0.00" arrival="187.00" arrivalLane="1o_0" arrivalPos="492.80" arrivalSpeed="10.28" duration="76.00" routeLength="995.90" waitingTime="0.00" waitingCount="0" stopTime="0.00" timeLoss="8.03" rerouteNo="0" devices="tripinfo_NS_111" vType="car" speedFactor="1.04" vaporized=""/>
    <tripinfo id="NS_105" depart="105.00" departLane="2i_0" departPos="4.10" departSpeed="0.00" departDelay="0.00" arrival="194.00" arrivalLane="3o_0" arrivalPos="492.80" arrivalSpeed="9.66" duration="89.00" routeLength="995.70" waitingTime="0.00" waitingCount="0" stopTime="0.00" timeLoss="9.81" rerouteNo="0" devices="tripinfo_NS_105" vType="car" speedFactor="0.90" vaporized=""/>
    <tripinfo id="WE_116" depart="116.00" departLane="1i_0" departPos="4.10" departSpeed="0.00" departDelay="0.00" arrival="195.00" arrivalLane="3o_0" arrivalPos="492.80" arrivalSpeed="10.55" duration="79.00" routeLength="990.53" waitingTime="0.00" waitingCount="0" stopTime="0.00" timeLoss="14.16" rerouteNo="0" devices="tripinfo_WE_116" vType="car" speedFactor="1.09" vaporized=""/>
    <tripinfo id="EW_75" depart="76.00" departLane="4i_0" departPos="4.10" departSpeed="0.00" departDelay="1.00" arrival="197.00" arrivalLane="3o_0" arrivalPos="492.80" arrivalSpeed="12.36" duration="121.00" routeLength="995.90" waitingTime="36.00" waitingCount="1" stopTime="0.00" timeLoss="58.29" rerouteNo="0" devices="tripinfo_EW_75" vType="car" speedFactor="1.13" vaporized=""/>
    <tripinfo id="EW_102" depart="102.00" departLane="4i_0" departPos="4.10" departSpeed="0.00" departDelay="0.00" arrival="199.00" arrivalLane="3o_0" arrivalPos="492.80" arrivalSpeed="13.10" duration="97.00" routeLength="995.90" waitingTime="14.00" waitingCount="1" stopTime="0.00" timeLoss="36.48" rerouteNo="0" devices="tripinfo_EW_102" vType="car" speedFactor="1.18" vaporized=""/>
    <tripinfo id="EW_99" depart="99.00" departLane="4i_0" departPos="4.10" departSpeed="0.00" departDelay="0.00" arrival="200.00" arrivalLane="1o_0" arrivalPos="492.80" arrivalSpeed="10.50" duration="101.00" routeLength="990.53" waitingTime="16.00" waitingCount="1" stopTime="0.00" timeLoss="30.16" rerouteNo="0" devices="tripinfo_EW_99" vType="car" speedFactor="0.99" vaporized=""/>
    <tripinfo id="EW_124" depart="124.00" departLane="4i_0" departPos="4.10" departSpeed="0.00" departDelay="0.00" arrival="201.00" arrivalLane="3o_0" arrivalPos="492.80" arrivalSpeed="11.78" duration="77.00" routeLength="995.90" waitingTime="0.00" waitingCount="0" stopTime="0.00" timeLoss="16.58" rerouteNo="0" devices="tripinfo_EW_124" vType="car" speedFactor="1.17" vaporized=""/>
    <tripinfo id="EW_118" depart="118.00" departLane="4i_0" departPos="4.10" departSpeed="0.00" departDelay="0.00" arrival="212.00" arrivalLane="2o_0" arrivalPos="492.80" arrivalSpeed="8.87" duration="94.00" routeLength="995.70" waitingTime="0.00" waitingCount="0" stopTime="0.00" timeLoss="13.48" rerouteNo="0" devices="tripinfo_EW_118" vType="car" speedFactor="0.88" vaporized=""/>
    <tripinfo id="EW_137" depart="137.00" departLane="4i_0" departPos="4.10" departSpeed="0.00" departDelay="0.00" arrival="215.00" arrivalLane="1o_0" arrivalPos="492.80" arrivalSpeed="10.30" duration="78.00" routeLength="990.53" waitingTime="0.00" waitingCount="0" stopTime="0.00" timeLoss="7.95" rerouteNo="0" devices="tripinfo_EW_137" vType="car" speedFactor="1.00" vaporized=""/>
    <tripinfo id="EW_119" depart="121.00" departLane="4i_0" departPos="4.10" departSpeed="0.00" departDelay="2.00" arrival="216.00" arrivalLane="2o_0" arrivalPos="492.80" arrivalSpeed="9.41" duration="95.00" routeLength="995.70" waitingTime="0.00" waitingCount="0" stopTime="0.00" timeLoss="11.36" rerouteNo="0" devices="tripinfo_EW_119" vType="car" speedFactor="0.85" vaporized=""/>
    <tripinfo id="SN_98" depart="98.00" departLane="3i_0" departPos="4.10" departSpeed="0.00" departDelay="0.00" arrival="217.00" arrivalLane="1o_0" arrivalPos="492.80" arrivalSpeed="12.81" duration="119.00" routeLength="995.70" waitingTime="36.00" waitingCount="2" stopTime="0.00" timeLoss="58.21" rerouteNo="0" devices="tripinfo_SN_98" vType="car" speedFactor="1.17" vaporized=""/>
    <tripinfo id="SN_102" depart="104.00" departLane="3i_0" departPos="4.10" departSpeed="0.00" departDelay="2.00" arrival="219.00" arrivalLane="1o_0" arrivalPos="492.80" arrivalSpeed="11.07" duration="115.00" routeLength="995.70" waitingTime="28.00" waitingCount="2" stopTime="0.00" timeLoss="50.18" rerouteNo="0" devices="tripinfo_SN_102" vType="car" speedFactor="1.10" vaporized=""/>
    <tripinfo id="SN_100" depart="101.00" departLane="3i_0" departPos="4.10" departSpeed="0.00" departDelay="1.00" arrival="221.00" arrivalLane="2o_0" arrivalPos="492.80" arrivalSpeed="10.24" duration="120.00" routeLength="990.53" waitingTime="31.00" waitingCount="2" stopTime="0.00" timeLoss="47.20" rerouteNo="0" devices="tripinfo_SN_100" vType="car" speedFactor="0.97" vaporized=""/>
    <tripinfo id="NS_136" depart="136.00" departLane="2i_0" departPos="4.10" departSpeed="0.00" departDelay="0.00" arrival="221.00" arrivalLane="1o_0" arrivalPos="492.80" arrivalSpeed="11.42" duration="85.00" routeLength="995.90" waitingTime="6.00" waitingCount="1" stopTime="0.00" timeLoss="20.06" rerouteNo="0" devices="tripinfo_NS_136" vType="car" speedFactor="1.10" vaporized=""/>
    <tripinfo id="NS_138" depart="139.00" departLane="2i_0" departPos="4.10" departSpeed="0.00" departDelay="1.00" arrival="228.00" arrivalLane="3o_0" arrivalPos="492.80" arrivalSpeed="10.65" duration="89.00" routeLength="995.70" waitingTime="2.00" waitingCount="1" stopTime="0.00" timeLoss="17.20" rerouteNo="0" devices="tripinfo_NS_138" vType="car" speedFactor="1.00" vaporized=""/>
    <tripinfo id="WE_118" depart="119.00" departLane="1i_0" departPos="4.10" departSpeed="0.00" departDelay="1.00" arrival="230.00" arrivalLane="2o_0" arrivalPos="492.80" arrivalSpeed="9.33" duration="111.00" routeLength="995.90" waitingTime="18.00" waitingCount="1" stopTime="0.00" timeLoss="32.47" rerouteNo="0" devices="tripinfo_WE_118" vType="car" speedFactor="0.90" vaporized=""/>
    <tripinfo id="NS_142" depart="143.00" departLane="2i_0" departPos="4.10" departSpeed="0.00" departDelay="1.00" arrival="236.00" arrivalLane="3o_0" arrivalPos="492.80" arrivalSpeed="8.70" duration="93.00" routeLength="995.70" waitingTime="0.00" waitingCount="0" stopTime="0.00" timeLoss="14.34" rerouteNo="0" devices="tripinfo_NS_142" vType="car" speedFactor="0.90" vaporized=""/>
    <tripinfo id="WE_123" depart="123.00" departLane="1i_0" departPos="4.10" departSpeed="0.00" departDelay="0.00" arrival="238.00" arrivalLane="4o_0" arrivalPos="492.80" arrivalSpeed="9.17" duration="115.00" routeLength="995.70" waitingTime="15.00" waitingCount="1" stopTime="0.00" timeLoss="32.39" rerouteNo="0" devices="tripinfo_WE_123" vType="car" speedFactor="0.85" vaporized=""/>
    <tripinfo id="NS_148" depart="148.00" departLane="2i_0" departPos="4.10" departSpeed="0.00" departDelay="0.00" arrival="238.00" arrivalLane="3o_0" arrivalPos="492.80" arrivalSpeed="11.58" duration="90.00" routeLength="995.70" waitingTime="1.00" waitingCount="1" stopTime="0.00" timeLoss="27.65" rerouteNo="0" devices="tripinfo_NS_148" vType="car" speedFactor="1.14" vaporized=""/>
    <tripinfo id="SN_106" depart="107.00" departLane="3i_0" departPos="10.10" departSpeed="0.00" departDelay="1.00" arrival="241.00" arrivalLane="4o_0" arrivalPos="492.80" arrivalSpeed="10.80" duration="134.00" routeLength="989.90" waitingTime="23.00" waitingCount="4" stopTime="0.00" timeLoss="64.20" rerouteNo="0" devices="tripinfo_SN_106" vType="truck" speedFactor="1.02" vaporized=""/>
    <tripinfo id="SN_110" depart="113.00" departLane="3i_0" departPos="4.10" departSpeed="0.00" departDelay="3.00" arrival="242.00" arrivalLane="2o_0" arrivalPos="492.80" arrivalSpeed="11.42" duration="129.00" routeLength="990.53" waitingTime="18.00" waitingCount="3" stopTime="0.00" timeLoss="64.55" rerouteNo="0" devices="tripinfo_SN_110" vType="car" speedFactor="1.09" vaporized=""/>
    <tripinfo id="EW_167" depart="167.00" departLane="4i_0" departPos="4.10" departSpeed="0.00" departDelay="0.00" arrival="242.00" arrivalLane="3o_0" arrivalPos="492.80" arrivalSpeed="11.94" duration="75.00" routeLength="995.90" waitingTime="0.00" waitingCount="0" stopTime="0.00" timeLoss="8.74" rerouteNo="0" devices="tripinfo_EW_167" vType="car" speedFactor="1.08" vaporized=""/>
    <tripinfo id="WE_151" depart="151.00" departLane="1i_0" departPos="4.10" departSpeed="0.00" departDelay="0.00" arrival="243.00" arrivalLane="4o_0" arrivalPos="492.80" arrivalSpeed="10.51" duration="92.00" routeLength="995.70" waitingTime="2.00" waitingCount="1" stopTime="0.00" timeLoss="22.75" rerouteNo="0" devices="tripinfo_WE_151" vType="car" speedFactor="1.02" vaporized=""/>
    <tripinfo id="SN_109" depart="111.00" departLane="3i_0" departPos="4.10" departSpeed="0.00" departDelay="2.00" arrival="245.00" arrivalLane="4o_0" arrivalPos="492.80" arrivalSpeed="9.90" duration="134.00" routeLength="995.90" waitingTime="22.00" waitingCount="5" stopTime="0.00" timeLoss="60.04" rerouteNo="0" devices="tripinfo_SN_109" vType="car" speedFactor="0.96" vaporized=""/>
    <tripinfo id="SN_115" depart="117.00" departLane="3i_0" departPos="4.10" departSpeed="0.00" departDelay="2.00" arrival="247.00" arrivalLane="4o_0" arrivalPos="492.80" arrivalSpeed="10.61" duration="130.00" routeLength="995.90" waitingTime="16.00" waitingCount="3" stopTime="0.00" timeLoss="61.94" rerouteNo="0" devices="tripinfo_SN_115" vType="car" speedFactor="1.04" vaporized=""/>
    <tripinfo id="WE_174" depart="174.00" departLane="1i_0" departPos="4.10" departSpeed="0.00" departDelay="0.00" arrival="251.00" arrivalLane="4o_0" arrivalPos="492.80" arrivalSpeed="12.15" duration="77.00" routeLength="995.70" waitingTime="0.00" waitingCount="0" stopTime="0.00" timeLoss="13.60" rerouteNo="0" devices="tripinfo_WE_174" vType="car" speedFactor="1.12" vaporized=""/>
    <tripinfo id="SN_116" depart="120.00" departLane="3i_0" departPos="4.10" departSpeed="0.00" departDelay="4.00" arrival="255.00" arrivalLane="2o_0" arrivalPos="492.80" arrivalSpeed="10.73" duration="135.00" routeLength="990.53" waitingTime="17.00" waitingCount="4" stopTime="0.00" timeLoss="63.77" rerouteNo="0" devices="tripinfo_SN_116" vType="car" speedFactor="1.00" vaporized=""/>
    <tripinfo id="SN_129" depart="129.00" departLane="3i_0" departPos="4.10" departSpeed="0.00" departDelay="0.00" arrival="260.00" arrivalLane="1o_0" arrivalPos="492.80" arrivalSpeed="10.72" duration="131.00" routeLength="995.70" waitingTime="15.00" waitingCount="3" stopTime="0.00" timeLoss="61.60" rerouteNo="0" devices="tripinfo_SN_129" vType="car" speedFactor="1.02" vaporized=""/>
    <tripinfo id="WE_183" depart="183.00" departLane="1i_0" departPos="4.10" departSpeed="0.00" departDelay="0.00" arrival="266.00" arrivalLane="4o_0" arrivalPos="492.80" arrivalSpeed="10.32" duration="83.00" routeLength="995.70" waitingTime="0.00" waitingCount="0" stopTime="0.00" timeLoss="10.57" rerouteNo="0" devices="tripinfo_WE_183" vType="car" speedFactor="0.99" vaporized=""/>
    <tripinfo id="SN_152" depart="152.00" departLane="3i_0" departPos="4.10" departSpeed="0.00" departDelay="0.00" arrival="268.00" arrivalLane="1o_0" arrivalPos="492.80" arrivalSpeed="9.86" duration="116.00" routeLength="995.70" waitingTime="2.00" waitingCount="2" stopTime="0.00" timeLoss="43.00" rerouteNo="0" devices="tripinfo_SN_152" vType="car" speedFactor="0.97" vaporized=""/>
    <tripinfo id="WE_195" depart="195.00" departLane="1i_0" departPos="4.10" departSpeed="0.00" departDelay="0.00" arrival="271.00" arrivalLane="3o_0" arrivalPos="492.80" arrivalSpeed="10.86" duration="76.00" routeLength="990.53" waitingTime="0.00" waitingCount="0" stopTime="0.00" timeLoss="7.84" rerouteNo="0" devices="tripinfo_WE_195" vType="car" speedFactor="1.04" vaporized=""/>
    <tripinfo id="SN_175" depart="175.00" departLane="3i_0" departPos="4.10" departSpeed="0.00" departDelay="0.00" arrival="272.00" arrivalLane="1o_0" arrivalPos="492.80" arrivalSpeed="11.09" duration="97.00" routeLength="995.70" waitingTime="1.00" waitingCount="1" stopTime="0.00" timeLoss="26.71" rerouteNo="0" devices="tripinfo_SN_175" vType="car" speedFactor="1.02" vaporized=""/>
    <tripinfo id="SN_184" depart="184.00" departLane="3i_0" departPos="10.10" departSpeed="0.00" departDelay="0.00" arrival="281.00" arrivalLane="1o_0" arrivalPos="492.80" arrivalSpeed="10.25" duration="97.00" routeLength="989.70" waitingTime="1.00" waitingCount="1" stopTime="0.00" timeLoss="24.02" rerouteNo="0" devices="tripinfo_SN_184" vType="truck" speedFactor="0.97" vaporized=""/>
    <tripinfo id="NS_188" depart="188.00" departLane="2i_0" departPos="4.10" departSpeed="0.00" departDelay="0.00" arrival="282.00" arrivalLane="3o_0" arrivalPos="492.80" arrivalSpeed="9.21" duration="94.00" routeLength="995.70" waitingTime="0.00" waitingCount="0" stopTime="0.00" timeLoss="13.09" rerouteNo="0" devices="tripinfo_NS_188" vType="car" speedFactor="0.88" vaporized=""/>
    <tripinfo id="NS_191" depart="191.00" departLane="2i_0" departPos="4.10" departSpeed="0.00" departDelay="0.00" arrival="283.00" arrivalLane="3o_0" arrivalPos="492.80" arrivalSpeed="9.45" duration="92.00" routeLength="995.70" waitingTime="0.00" waitingCount="0" stopTime="0.00" timeLoss="14.06" rerouteNo="0" devices="tripinfo_NS_191" vType="car" speedFactor="0.91" vaporized=""/>
    <tripinfo id="NS_195" depart="195.00" departLane="2i_0" departPos="4.10" departSpeed="0.00" departDelay="0.00" arrival="283.00" arrivalLane="1o_0" arrivalPos="492.80" arrivalSpeed="10.44" duration="88.00" routeLength="995.90" waitingTime="1.00" waitingCount="1" stopTime="0.00" timeLoss="18.86" rerouteNo="0" devices="tripinfo_NS_195" vType="car" speedFactor="1.02" vaporized=""/>
    <tripinfo id="SN_195" depart="199.00" departLane="3i_0" departPos="4.10" departSpeed="0.00" departDelay="4.00" arrival="290.00" arrivalLane="2o_0" arrivalPos="492.80" arrivalSpeed="10.33" duration="91.00" routeLength="990.53" waitingTime="2.00" waitingCount="2" stopTime="0.00" timeLoss="22.18" rerouteNo="0" devices="tripinfo_SN_195" vType="car" speedFactor="1.02" vaporized=""/>
    <tripinfo id="SN_194" depart="195.00" departLane="3i_0" departPos="4.10" departSpeed="0.00" departDelay="1.00" arrival="292.00" arrivalLane="4o_0" arrivalPos="492.80" arrivalSpeed="10.01" duration="97.00" routeLength="995.90" waitingTime="2.00" waitingCount="1" stopTime="0.00" timeLoss="19.77" rerouteNo="0" devices="tripinfo_SN_194" vType="car" speedFactor="0.91" vaporized=""/>
    <tripinfo id="NS_206" depart="206.00" departLane="2i_0" departPos="4.10" departSpeed="0.00" departDelay="0.00" arrival="292.00" arrivalLane="3o_0" arrivalPos="492.80" arrivalSpeed="10.21" duration="86.00" routeLength="995.70" waitingTime="1.00" waitingCount="1" stopTime="0.00" timeLoss="13.38" rerouteNo="0" devices="tripinfo_NS_206" vType="car" speedFactor="0.97" vaporized=""/>
    <tripinfo id="WE_221" depart="221.00" departLane="1i_0" departPos="4.10" departSpeed="0.00" departDelay="0.00" arrival="296.00" arrivalLane="3o_0" arrivalPos="492.80" arrivalSpeed="10.98" duration="75.00" routeLength="990.53" waitingTime="0.00" waitingCount="0" stopTime="0.00" timeLoss="8.10" rerouteNo="0" devices="tripinfo_WE_221" vType="car" speedFactor="1.06" vaporized=""/>
    <tripinfo id="NS_225" depart="225.00" departLane="2i_0" departPos="4.10" departSpeed="0.00" departDelay="0.00" arrival="303.00" arrivalLane="1o_0" arrivalPos="492.80" arrivalSpeed="10.42" duration="78.00" routeLength="995.90" waitingTime="0.00" waitingCount="0" stopTime="0.00" timeLoss="8.84" rerouteNo="0" devices="tripinfo_NS_225" vType="car" speedFactor="1.03" vaporized=""/>
    <tripinfo id="EW_222" depart="222.00" departLane="4i_0" departPos="4.10" departSpeed="0.00" departDelay="0.00" arrival="312.00" arrivalLane="3o_0" arrivalPos="492.80" arrivalSpeed="9.41" duration="90.00" routeLength="995.90" waitingTime="4.00" waitingCount="1" stopTime="0.00" timeLoss="16.05" rerouteNo="0" devices="tripinfo_EW_222" vType="car" speedFactor="0.96" vaporized=""/>
    <tripinfo id="SN_217" depart="217.00" departLane="3i_0" departPos="10.10" departSpeed="0.00" departDelay="0.00" arrival="314.00" arrivalLane="2o_0" arrivalPos="492.80" arrivalSpeed="10.19" duration="97.00" routeLength="984.53" waitingTime="4.00" waitingCount="2" stopTime="0.00" timeLoss="24.97" rerouteNo="0" devices="tripinfo_SN_217" vType="truck" speedFactor="0.97" vaporized=""/>