<?xml version="1.0" encoding="UTF-8"?>

<!-- generated on 2024-05-05 21:53:21 by Eclipse SUMO sumo Version 1.19.0
<configuration xmlns:xsi="http://www.w3.org/2001/XMLSchema-instance" xsi:noNamespaceSchemaLocation="http://sumo.dlr.de/xsd/sumoConfiguration.xsd">

    <input>
        <net-file value="twoone.net.xml"/>
        <route-files value="route_gen.rou.xml"/>
    </input>

    <output>
        <tripinfo-output value="tripinfo_epi140.xml"/>
    </output>

    <report>
        <no-warnings value="true"/>
    </report>

    <traci_server>
        <remote-port value="35881"/>
    </traci_server>

</configuration>
-->

<tripinfos xmlns:xsi="http://www.w3.org/2001/XMLSchema-instance" xsi:noNamespaceSchemaLocation="http://sumo.dlr.de/xsd/tripinfo_file.xsd">
    <tripinfo id="WE_10" depart="10.00" departLane="1i_0" departPos="4.10" departSpeed="0.00" departDelay="0.00" arrival="83.00" arrivalLane="3o_0" arrivalPos="492.80" arrivalSpeed="12.02" duration="73.00" routeLength="990.53" waitingTime="0.00" waitingCount="0" stopTime="0.00" timeLoss="7.40" rerouteNo="0" devices="tripinfo_WE_10" vType="car" speedFactor="1.08" vaporized=""/>
    <tripinfo id="EW_9" depart="9.00" departLane="4i_0" departPos="4.10" departSpeed="0.00" departDelay="0.00" arrival="91.00" arrivalLane="1o_0" arrivalPos="492.80" arrivalSpeed="10.85" duration="82.00" routeLength="990.53" waitingTime="0.00" waitingCount="0" stopTime="0.00" timeLoss="11.70" rerouteNo="0" devices="tripinfo_EW_9" vType="car" speedFactor="1.01" vaporized=""/>
    <tripinfo id="SN_3" depart="3.00" departLane="3i_0" departPos="10.10" departSpeed="0.00" departDelay="0.00" arrival="94.00" arrivalLane="4o_0" arrivalPos="492.80" arrivalSpeed="11.02" duration="91.00" routeLength="989.90" waitingTime="2.00" waitingCount="2" stopTime="0.00" timeLoss="22.73" rerouteNo="0" devices="tripinfo_SN_3" vType="truck" speedFactor="1.03" vaporized=""/>
    <tripinfo id="NS_21" depart="22.00" departLane="2i_0" departPos="4.10" departSpeed="0.00" departDelay="1.00" arrival="111.00" arrivalLane="4o_0" arrivalPos="492.80" arrivalSpeed="9.20" duration="89.00" routeLength="990.53" waitingTime="0.00" waitingCount="0" stopTime="0.00" timeLoss="9.44" rerouteNo="0" devices="tripinfo_NS_21" vType="car" speedFactor="0.89" vaporized=""/>
    <tripinfo id="WE_36" depart="36.00" departLane="1i_0" departPos="4.10" departSpeed="0.00" departDelay="0.00" arrival="111.00" arrivalLane="2o_0" arrivalPos="492.80" arrivalSpeed="11.03" duration="75.00" routeLength="995.90" waitingTime="0.00" waitingCount="0" stopTime="0.00" timeLoss="7.42" rerouteNo="0" devices="tripinfo_WE_36" vType="car" speedFactor="1.05" vaporized=""/>
    <tripinfo id="NS_26" depart="26.00" departLane="2i_0" departPos="4.10" departSpeed="0.00" departDelay="0.00" arrival="113.00" arrivalLane="4o_0" arrivalPos="492.80" arrivalSpeed="11.32" duration="87.00" routeLength="990.53" waitingTime="0.00" waitingCount="0" stopTime="0.00" timeLoss="21.99" rerouteNo="0" devices="tripinfo_NS_26" vType="car" speedFactor="1.09" vaporized=""/>
    <tripinfo id="NS_19" depart="19.00" departLane="2i_0" departPos="4.10" departSpeed="0.00" departDelay="0.00" arrival="114.00" arrivalLane="3o_0" arrivalPos="492.80" arrivalSpeed="8.99" duration="95.00" routeLength="995.70" waitingTime="0.00" waitingCount="0" stopTime="0.00" timeLoss="9.59" rerouteNo="0" devices="tripinfo_NS_19" vType="car" speedFactor="0.83" vaporized=""/>
    <tripinfo id="NS_33" depart="33.00" departLane="2i_0" departPos="4.10" departSpeed="0.00" departDelay="0.00" arrival="115.00" arrivalLane="4o_0" arrivalPos="492.80" arrivalSpeed="10.99" duration="82.00" routeLength="990.53" waitingTime="0.00" waitingCount="0" stopTime="0.00" timeLoss="12.66" rerouteNo="0" devices="tripinfo_NS_33" vType="car" speedFactor="1.03" vaporized=""/>
    <tripinfo id="WE_37" depart="38.00" departLane="1i_0" departPos="4.10" departSpeed="0.00" departDelay="1.00" arrival="116.00" arrivalLane="3o_0" arrivalPos="492.80" arrivalSpeed="11.99" duration="78.00" routeLength="990.53" waitingTime="0.00" waitingCount="0" stopTime="0.00" timeLoss="14.66" rerouteNo="0" devices="tripinfo_WE_37" vType="car" speedFactor="1.12" vaporized=""/>
    <tripinfo id="NS_37" depart="37.00" departLane="2i_0" departPos="4.10" departSpeed="0.00" departDelay="0.00" arrival="119.00" arrivalLane="3o_0" arrivalPos="492.80" arrivalSpeed="9.95" duration="82.00" routeLength="995.70" waitingTime="0.00" waitingCount="0" stopTime="0.00" timeLoss="9.96" rerouteNo="0" devices="tripinfo_NS_37" vType="car" speedFactor="0.99" vaporized=""/>
    <tripinfo id="NS_48" depart="48.00" departLane="2i_0" departPos="4.10" departSpeed="0.00" departDelay="0.00" arrival="134.00" arrivalLane="3o_0" arrivalPos="492.80" arrivalSpeed="9.22" duration="86.00" routeLength="995.70" waitingTime="0.00" waitingCount="0" stopTime="0.00" timeLoss="10.16" rerouteNo="0" devices="tripinfo_NS_48" vType="car" speedFactor="0.94" vaporized=""/>
    <tripinfo id="WE_52" depart="52.00" departLane="1i_0" departPos="10.10" departSpeed="0.00" departDelay="0.00" arrival="136.00" arrivalLane="3o_0" arrivalPos="492.80" arrivalSpeed="10.87" duration="84.00" routeLength="984.53" waitingTime="0.00" waitingCount="0" stopTime="0.00" timeLoss="17.76" rerouteNo="0" devices="tripinfo_WE_52" vType="truck" speedFactor="1.08" vaporized=""/>
    <tripinfo id="NS_63" depart="63.00" departLane="2i_0" departPos="4.10" departSpeed="0.00" departDelay="0.00" arrival="140.00" arrivalLane="4o_0" arrivalPos="492.80" arrivalSpeed="10.44" duration="77.00" routeLength="990.53" waitingTime="0.00" waitingCount="0" stopTime="0.00" timeLoss="7.27" rerouteNo="0" devices="tripinfo_NS_63" vType="car" speedFactor="1.02" vaporized=""/>
    <tripinfo id="WE_67" depart="67.00" departLane="1i_0" departPos="4.10" departSpeed="0.00" departDelay="0.00" arrival="145.00" arrivalLane="3o_0" arrivalPos="492.80" arrivalSpeed="10.45" duration="78.00" routeLength="990.53" waitingTime="0.00" waitingCount="0" stopTime="0.00" timeLoss="7.57" rerouteNo="0" devices="tripinfo_WE_67" vType="car" speedFactor="1.01" vaporized=""/>
    <tripinfo id="WE_89" depart="91.00" departLane="1i_0" departPos="4.10" departSpeed="0.00" departDelay="2.00" arrival="165.00" arrivalLane="2o_0" arrivalPos="492.80" arrivalSpeed="11.31" duration="74.00" routeLength="995.90" waitingTime="0.00" waitingCount="0" stopTime="0.00" timeLoss="11.13" rerouteNo="0" devices="tripinfo_WE_89" vType="car" speedFactor="1.13" vaporized=""/>
    <tripinfo id="WE_88" depart="88.00" departLane="1i_0" departPos="4.10" departSpeed="0.00" departDelay="0.00" arrival="174.00" arrivalLane="3o_0" arrivalPos="492.80" arrivalSpeed="9.29" duration="86.00" routeLength="990.53" waitingTime="0.00" waitingCount="0" stopTime="0.00" timeLoss="9.04" rerouteNo="0" devices="tripinfo_WE_88" vType="car" speedFactor="0.92" vaporized=""/>
    <tripinfo id="NS_87" depart="87.00" departLane="2i_0" departPos="4.10" departSpeed="0.00" departDelay="0.00" arrival="177.00" arrivalLane="4o_0" arrivalPos="492.80" arrivalSpeed="8.71" duration="90.00" routeLength="990.53" waitingTime="0.00" waitingCount="0" stopTime="0.00" timeLoss="8.77" rerouteNo="0" devices="tripinfo_NS_87" vType="car" speedFactor="0.87" vaporized=""/>
    <tripinfo id="NS_96" depart="96.00" departLane="2i_0" departPos="4.10" departSpeed="0.00" departDelay="0.00" arrival="181.00" arrivalLane="3o_0" arrivalPos="492.80" arrivalSpeed="10.27" duration="85.00" routeLength="995.70" waitingTime="0.00" waitingCount="0" stopTime="0.00" timeLoss="9.04" rerouteNo="0" devices="tripinfo_NS_96" vType="car" speedFactor="0.93" vaporized=""/>
    <tripinfo id="WE_124" depart="124.00" departLane="1i_0" departPos="4.10" departSpeed="0.00" departDelay="0.00" arrival="192.00" arrivalLane="2o_0" arrivalPos="492.80" arrivalSpeed="12.51" duration="68.00" routeLength="995.90" waitingTime="0.00" waitingCount="0" stopTime="0.00" timeLoss="7.70" rerouteNo="0" devices="tripinfo_WE_124" vType="car" speedFactor="1.17" vaporized=""/>
    <tripinfo id="NS_128" depart="128.00" departLane="2i_0" departPos="4.10" departSpeed="0.00" departDelay="0.00" arrival="208.00" arrivalLane="4o_0" arrivalPos="492.80" arrivalSpeed="10.82" duration="80.00" routeLength="990.53" waitingTime="0.00" waitingCount="0" stopTime="0.00" timeLoss="8.45" rerouteNo="0" devices="tripinfo_NS_128" vType="car" speedFactor="0.99" vaporized=""/>
    <tripinfo id="NS_137" depart="137.00" departLane="2i_0" departPos="4.10" departSpeed="0.00" departDelay="0.00" arrival="220.00" arrivalLane="3o_0" arrivalPos="492.80" arrivalSpeed="10.27" duration="83.00" routeLength="995.70" waitingTime="0.00" waitingCount="0" stopTime="0.00" timeLoss="9.61" rerouteNo="0" devices="tripinfo_NS_137" vType="car" speedFactor="0.97" vaporized=""/>
    <tripinfo id="NS_140" depart="140.00" departLane="2i_0" departPos="4.10" departSpeed="0.00" departDelay="0.00" arrival="221.00" arrivalLane="3o_0" arrivalPos="492.80" arrivalSpeed="11.51" duration="81.00" routeLength="995.70" waitingTime="0.00" waitingCount="0" stopTime="0.00" timeLoss="16.80" rerouteNo="0" devices="tripinfo_NS_140" vType="car" speedFactor="1.10" vaporized=""/>
    <tripinfo id="WE_139" depart="139.00" departLane="1i_0" departPos="10.10" departSpeed="0.00" departDelay="0.00" arrival="222.00" arrivalLane="4o_0" arrivalPos="492.80" arrivalSpeed="11.97" duration="83.00" routeLength="989.70" waitingTime="0.00" waitingCount="0" stopTime="0.00" timeLoss="16.78" rerouteNo="0" devices="tripinfo_WE_139" vType="truck" speedFactor="1.09" vaporized=""/>
    <tripinfo id="WE_153" depart="153.00" departLane="1i_0" departPos="4.10" departSpeed="0.00" departDelay="0.00" arrival="236.00" arrivalLane="2o_0" arrivalPos="492.80" arrivalSpeed="9.62" duration="83.00" routeLength="995.90" waitingTime="0.00" waitingCount="0" stopTime="0.00" timeLoss="8.52" rerouteNo="0" devices="tripinfo_WE_153" vType="car" speedFactor="0.96" vaporized=""/>
    <tripinfo id="WE_165" depart="165.00" departLane="1i_0" departPos="4.10" departSpeed="0.00" departDelay="0.00" arrival="238.00" arrivalLane="2o_0" arrivalPos="492.80" arrivalSpeed="11.38" duration="73.00" routeLength="995.90" waitingTime="0.00" waitingCount="0" stopTime="0.00" timeLoss="7.62" rerouteNo="0" devices="tripinfo_WE_165" vType="car" speedFactor="1.09" vaporized=""/>
    <tripinfo id="WE_168" depart="168.00" departLane="1i_0" departPos="4.10" departSpeed="0.00" departDelay="0.00" arrival="247.00" arrivalLane="2o_0" arrivalPos="492.80" arrivalSpeed="10.39" duration="79.00" routeLength="995.90" waitingTime="0.00" waitingCount="0" stopTime="0.00" timeLoss="7.42" rerouteNo="0" devices="tripinfo_WE_168" vType="car" speedFactor="1.00" vaporized=""/>
    <tripinfo id="WE_183" depart="183.00" departLane="1i_0" departPos="4.10" departSpeed="0.00" departDelay="0.00" arrival="256.00" arrivalLane="2o_0" arrivalPos="492.80" arrivalSpeed="11.68" duration="73.00" routeLength="995.90" waitingTime="0.00" waitingCount="0" stopTime="0.00" timeLoss="7.88" rerouteNo="0" devices="tripinfo_WE_183" vType="car" speedFactor="1.10" vaporized=""/>
    <tripinfo id="WE_170" depart="170.00" departLane="1i_0" departPos="4.10" departSpeed="0.00" departDelay="0.00" arrival="260.00" arrivalLane="3o_0" arrivalPos="492.80" arrivalSpeed="9.45" duration="90.00" routeLength="990.53" waitingTime="0.00" waitingCount="0" stopTime="0.00" timeLoss="9.16" rerouteNo="0" devices="tripinfo_WE_170" vType="car" speedFactor="0.88" vaporized=""/>
    <tripinfo id="NS_169" depart="169.00" departLane="2i_0" departPos="4.10" departSpeed="0.00" departDelay="0.00" arrival="262.00" arrivalLane="3o_0" arrivalPos="492.80" arrivalSpeed="9.84" duration="93.00" routeLength="995.70" waitingTime="0.00" waitingCount="0" stopTime="0.00" timeLoss="13.98" rerouteNo="0" devices="tripinfo_NS_169" vType="car" speedFactor="0.90" vaporized=""/>
    <tripinfo id="NS_178" depart="178.00" departLane="2i_0" departPos="4.10" departSpeed="0.00" departDelay="0.00" arrival="264.00" arrivalLane="3o_0" arrivalPos="492.80" arrivalSpeed="12.98" duration="86.00" routeLength="995.70" waitingTime="0.00" waitingCount="0" stopTime="0.00" timeLoss="24.56" rerouteNo="0" devices="tripinfo_NS_178" vType="car" speedFactor="1.17" vaporized=""/>
    <tripinfo id="WE_173" depart="173.00" departLane="1i_0" departPos="4.10" departSpeed="0.00" departDelay="0.00" arrival="267.00" arrivalLane="4o_0" arrivalPos="492.80" arrivalSpeed="9.05" duration="94.00" routeLength="995.70" waitingTime="0.00" waitingCount="0" stopTime="0.00" timeLoss="10.91" rerouteNo="0" devices="tripinfo_WE_173" vType="car" speedFactor="0.85" vaporized=""/>
    <tripinfo id="WE_199" depart="199.00" departLane="1i_0" departPos="4.10" departSpeed="0.00" departDelay="0.00" arrival="287.00" arrivalLane="2o_0" arrivalPos="492.80" arrivalSpeed="9.26" duration="88.00" routeLength="995.90" waitingTime="0.00" waitingCount="0" stopTime="0.00" timeLoss="8.74" rerouteNo="0" devices="tripinfo_WE_199" vType="car" speedFactor="0.90" vaporized=""/>
    <tripinfo id="NS_209" depart="209.00" departLane="2i_0" departPos="10.10" departSpeed="0.00" departDelay="0.00" arrival="292.00" arrivalLane="1o_0" arrivalPos="492.80" arrivalSpeed="10.98" duration="83.00" routeLength="989.90" waitingTime="0.00" waitingCount="0" stopTime="0.00" timeLoss="13.31" rerouteNo="0" devices="tripinfo_NS_209" vType="truck" speedFactor="1.01" vaporized=""/>
    <tripinfo id="NS_220" depart="220.00" departLane="2i_0" departPos="4.10" departSpeed="0.00" departDelay="0.00" arrival="300.00" arrivalLane="1o_0" arrivalPos="492.80" arrivalSpeed="10.75" duration="80.00" routeLength="995.90" waitingTime="0.00" waitingCount="0" stopTime="0.00" timeLoss="7.92" rerouteNo="0" devices="tripinfo_NS_220" vType="car" speedFactor="0.99" vaporized=""/>
    <tripinfo id="NS_223" depart="223.00" departLane="2i_0" departPos="4.10" departSpeed="0.00" departDelay="0.00" arrival="307.00" arrivalLane="1o_0" arrivalPos="492.80" arrivalSpeed="9.15" duration="84.00" routeLength="995.90" waitingTime="0.00" waitingCount="0" stopTime="0.00" timeLoss="8.55" rerouteNo="0" devices="tripinfo_NS_223" vType="car" speedFactor="0.94" vaporized=""/>
    <tripinfo id="WE_229" depart="229.00" departLane="1i_0" departPos="4.10" departSpeed="0.00" departDelay="0.00" arrival="308.00" arrivalLane="4o_0" arrivalPos="492.80" arrivalSpeed="10.75" duration="79.00" routeLength="995.70" waitingTime="0.00" waitingCount="0" stopTime="0.00" timeLoss="10.19" rerouteNo="0" devices="tripinfo_WE_229" vType="car" speedFactor="1.04" vaporized=""/>
    <tripinfo id="WE_231" depart="232.00" departLane="1i_0" departPos="4.10" departSpeed="0.00" departDelay="1.00" arrival="310.00" arrivalLane="2o_0" arrivalPos="492.80" arrivalSpeed="10.29" duration="78.00" routeLength="995.90" waitingTime="0.00" waitingCount="0" stopTime="0.00" timeLoss="8.31" rerouteNo="0" devices="tripinfo_WE_231" vType="car" speedFactor="1.02" vaporized=""/>
    <tripinfo id="NS_243" depart="243.00" departLane="2i_0" departPos="4.10" departSpeed="0.00" departDelay="0.00" arrival="323.00" arrivalLane="1o_0" arrivalPos="492.80" arrivalSpeed="10.34" duration="80.00" routeLength="995.90" waitingTime="0.00" waitingCount="0" stopTime="0.00" timeLoss="6.77" rerouteNo="0" devices="tripinfo_NS_243" vType="car" speedFactor="0.97" vaporized=""/>
    <tripinfo id="WE_255" depart="255.00" departLane="1i_0" departPos="4.10" departSpeed="0.00" departDelay="0.00" arrival="339.00" arrivalLane="4o_0" arrivalPos="492.80" arrivalSpeed="10.33" duration="84.00" routeLength="995.70" waitingTime="0.00" waitingCount="0" stopTime="0.00" timeLoss="9.68" rerouteNo="0" devices="tripinfo_WE_255" vType="car" speedFactor="0.96" vaporized=""/>
    <tripinfo id="WE_268" depart="268.00" departLane="1i_0" departPos="4.10" departSpeed="0.00" departDelay="0.00" arrival="348.00" arrivalLane="2o_0" arrivalPos="492.80" arrivalSpeed="10.38" duration="80.00" routeLength="995.90" waitingTime="0.00" waitingCount="0" stopTime="0.00" timeLoss="8.11" rerouteNo="0" devices="tripinfo_WE_268" vType="car" speedFactor="0.98" vaporized=""/>
    <tripinfo id="NS_270" depart="270.00" departLane="2i_0" departPos="4.10" departSpeed="0.00" departDelay="0.00" arrival="349.00" arrivalLane="1o_0" arrivalPos="492.80" arrivalSpeed="10.98" duration="79.00" routeLength="995.90" waitingTime="0.00" waitingCount="0" stopTime="0.00" timeLoss="8.04" rerouteNo="0" devices="tripinfo_NS_270" vType="car" speedFactor="1.01" vaporized=""/>
    <tripinfo id="WE_274" depart="274.00" departLane="1i_0" departPos="4.10" departSpeed="0.00" departDelay="0.00" arrival="351.00" arrivalLane="4o_0" arrivalPos="492.80" arrivalSpeed="11.75" duration="77.00" routeLength="995.70" waitingTime="0.00" waitingCount="0" stopTime="0.00" timeLoss="11.12" rerouteNo="0" devices="tripinfo_WE_274" vType="car" speedFactor="1.09" vaporized=""/>
    <tripinfo id="WE_275" depart="277.00" departLane="1i_0" departPos="4.10" departSpeed="0.00" departDelay="2.00" arrival="355.00" arrivalLane="2o_0" arrivalPos="492.80" arrivalSpeed="11.39" duration="78.00" routeLength="995.90" waitingTime="0.00" waitingCount="0" stopTime="0.00" timeLoss="8.88" rerouteNo="0" devices="tripinfo_WE_275" vType="car" speedFactor="1.03" vaporized=""/>
    <tripinfo id="WE_279" depart="280.00" departLane="1i_0" departPos="4.10" departSpeed="0.00" departDelay="1.00" arrival="358.00" arrivalLane="3o_0" arrivalPos="492.80" arrivalSpeed="10.65" duration="78.00" routeLength="990.53" waitingTime="0.00" waitingCount="0" stopTime="0.00" timeLoss="8.36" rerouteNo="0" devices="tripinfo_WE_279" vType="car" speedFactor="1.02" vaporized=""/>
    <tripinfo id="WE_288" depart="288.00" departLane="1i_0" departPos="4.10" departSpeed="0.00" departDelay="0.00" arrival="371.00" arrivalLane="4o_0" arrivalPos="492.80" arrivalSpeed="9.83" duration="83.00" routeLength="995.70" waitingTime="0.00" waitingCount="0" stopTime="0.00" timeLoss="9.51" rerouteNo="0" devices="tripinfo_WE_288" vType="car" speedFactor="0.97" vaporized=""/>
    <tripinfo id="NS_293" depart="293.00" departLane="2i_0" departPos="4.10" departSpeed="0.00" departDelay="0.00" arrival="374.00" arrivalLane="4o_0" arrivalPos="492.80" arrivalSpeed="10.16" duration="81.00" routeLength="990.53" waitingTime="0.00" waitingCount="0" stopTime="0.00" timeLoss="8.27" rerouteNo="0" devices="tripinfo_NS_293" vType="car" speedFactor="0.98" vaporized=""/>
    <tripinfo id="WE_297" depart="297.00" departLane="1i_0" departPos="4.10" departSpeed="0.00" departDelay="0.00" arrival="376.00" arrivalLane="2o_0" arrivalPos="492.80" arrivalSpeed="10.77" duration="79.00" routeLength="995.90" waitingTime="0.00" waitingCount="0" stopTime="0.00" timeLoss="8.08" rerouteNo="0" devices="tripinfo_WE_297" vType="car" speedFactor="1.01" vaporized=""/>
    <tripinfo id="NS_299" depart="299.00" departLane="2i_0" departPos="4.10" departSpeed="0.00" departDelay="0.00" arrival="378.00" arrivalLane="3o_0" arrivalPos="492.80" arrivalSpeed="10.12" duration="79.00" routeLength="995.70" waitingTime="0.00" waitingCount="0" stopTime="0.00" timeLoss="9.41" rerouteNo="0" devices="tripinfo_NS_299" vType="car" speedFactor="1.02" vaporized=""/>
    <tripinfo id="EW_15" depart="15.00" departLane="4i_0" departPos="4.10" departSpeed="0.00" departDelay="0.00" arrival="394.00" arrivalLane="1o_0" arrivalPos="492.80" arrivalSpeed="11.40" duration="379.00" routeLength="981.50" waitingTime="301.00" waitingCount="1" stopTime="0.00" timeLoss="309.60" rerouteNo="0" devices="tripinfo_EW_15" vType="car" speedFactor="1.03" vaporized=""/>
    <tripinfo id="NS_303" depart="303.00" departLane="2i_0" departPos="10.10" departSpeed="0.00" departDelay="0.00" arrival="394.00" arrivalLane="3o_0" arrivalPos="492.80" arrivalSpeed="10.06" duration="91.00" routeLength="989.70" waitingTime="0.00" waitingCount="0" stopTime="0.00" timeLoss="16.23" rerouteNo="0" devices="tripinfo_NS_303" vType="truck" speedFactor="0.95" vaporized=""/>
    <tripinfo id="NS_318" depart="318.00" departLane="2i_0" departPos="4.10" departSpeed="0.00" departDelay="0.00" arrival="396.00" arrivalLane="4o_0" arrivalPos="492.80" arrivalSpeed="10.24" duration="78.00" routeLength="990.53" waitingTime="0.00" waitingCount="0" stopTime="0.00" timeLoss="8.52" rerouteNo="0" devices="tripinfo_NS_318" vType="car" speedFactor="1.01" vaporized=""/>
    <tripinfo id="NS_323" depart="323.00" departLane="2i_0" departPos="4.10" departSpeed="0.00" departDelay="0.00" arrival="398.00" arrivalLane="4o_0" arrivalPos="492.80" arrivalSpeed="10.99" duration="75.00" routeLength="990.53" waitingTime="0.00" waitingCount="0" stopTime="0.00" timeLoss="10.59" rerouteNo="0" devices="tripinfo_NS_323" vType="car" speedFactor="1.10" vaporized=""/>
    <tripinfo id="SN_8" depart="8.00" departLane="3i_0" departPos="4.10" departSpeed="0.00" departDelay="0.00" arrival="400.00" arrivalLane="2o_0" arrivalPos="492.80" arrivalSpeed="9.33" duration="392.00" routeLength="981.50" waitingTime="302.00" waitingCount="2" stopTime="0.00" timeLoss="318.30" rerouteNo="0" devices="tripinfo_SN_8" vType="car" speedFactor="0.94" vaporized=""/>
    <tripinfo id="NS_324" depart="326.00" departLane="2i_0" departPos="4.10" departSpeed="0.00" departDelay="2.00" arrival="400.00" arrivalLane="1o_0" arrivalPos="492.80" arrivalSpeed="11.78" duration="74.00" routeLength="995.90" waitingTime="0.00" waitingCount="0" stopTime="0.00" timeLoss="7.65" rerouteNo="0" devices="tripinfo_NS_324" vType="car" speedFactor="1.06" vaporized=""/>
    <tripinfo id="WE_327" depart="327.00" departLane="1i_0" departPos="4.10" departSpeed="0.00" departDelay="0.00" arrival="410.00" arrivalLane="2o_0" arrivalPos="492.80" arrivalSpeed="9.68" duration="83.00" routeLength="995.90" waitingTime="0.00" waitingCount="0" stopTime="0.00" timeLoss="8.52" rerouteNo="0" devices="tripinfo_WE_327" vType="car" speedFactor="0.96" vaporized=""/>
    <tripinfo id="WE_333" depart="333.00" departLane="1i_0" departPos="4.10" departSpeed="0.00" departDelay="0.00" arrival="415.00" arrivalLane="2o_0" arrivalPos="492.80" arrivalSpeed="9.76" duration="82.00" routeLength="995.90" waitingTime="0.00" waitingCount="0" stopTime="0.00" timeLoss="8.94" rerouteNo="0" devices="tripinfo_WE_333" vType="car" speedFactor="0.97" vaporized=""/>
    <tripinfo id="WE_336" depart="337.00" departLane="1i_0" departPos="10.10" departSpeed="0.00" departDelay="1.00" arrival="425.00" arrivalLane="4o_0" arrivalPos="492.80" arrivalSpeed="10.58" duration="88.00" routeLength="989.70" waitingTime="0.00" waitingCount="0" stopTime="0.00" timeLoss="15.09" rerouteNo="0" devices="tripinfo_WE_336" vType="truck" speedFactor="0.98" vaporized=""/>
    <tripinfo id="WE_339" depart="344.00" departLane="1i_0" departPos="4.10" departSpeed="0.00" departDelay="5.00" arrival="427.00" arrivalLane="4o_0" arrivalPos="492.80" arrivalSpeed="11.40" duration="83.00" routeLength="995.70" waitingTime="0.00" waitingCount="0" stopTime="0.00" timeLoss="16.59" rerouteNo="0" devices="tripinfo_WE_339" vType="car" speedFactor="1.07" vaporized=""/>
    <tripinfo id="WE_338" depart="341.00" departLane="1i_0" departPos="4.10" departSpeed="0.00" departDelay="3.00" arrival="433.00" arrivalLane="2o_0" arrivalPos="492.80" arrivalSpeed="9.37" duration="92.00" routeLength="995.90" waitingTime="0.00" waitingCount="0" stopTime="0.00" timeLoss="12.49" rerouteNo="0" devices="tripinfo_WE_338" vType="car" speedFactor="0.89" vaporized=""/>
    <tripinfo id="NS_356" depart="356.00" departLane="2i_0" departPos="4.10" departSpeed="0.00" departDelay="0.00" arrival="434.00" arrivalLane="3o_0" arrivalPos="492.80" arrivalSpeed="10.96" duration="78.00" routeLength="995.70" waitingTime="0.00" waitingCount="0" stopTime="0.00" timeLoss="10.99" rerouteNo="0" devices="tripinfo_NS_356" vType="car" speedFactor="1.06" vaporized=""/>
    <tripinfo id="WE_358" depart="358.00" departLane="1i_0" departPos="4.10" departSpeed="0.00" departDelay="0.00" arrival="444.00" arrivalLane="4o_0" arrivalPos="492.80" arrivalSpeed="9.96" duration="86.00" routeLength="995.70" waitingTime="0.00" waitingCount="0" stopTime="0.00" timeLoss="9.47" rerouteNo="0" devices="tripinfo_WE_358" vType="car" speedFactor="0.93" vaporized=""/>
    <tripinfo id="NS_369" depart="369.00" departLane="2i_0" departPos="4.10" departSpeed="0.00" departDelay="0.00" arrival="444.00" arrivalLane="3o_0" arrivalPos="492.80" arrivalSpeed="11.42" duration="75.00" routeLength="995.70" waitingTime="0.00" waitingCount="0" stopTime="0.00" timeLoss="9.87" rerouteNo="0" devices="tripinfo_NS_369" vType="car" speedFactor="1.10" vaporized=""/>
    <tripinfo id="NS_371" depart="372.00" departLane="2i_0" departPos="4.10" departSpeed="0.00" departDelay="1.00" arrival="445.00" arrivalLane="1o_0" arrivalPos="492.80" arrivalSpeed="11.82" duration="73.00" routeLength="995.90" waitingTime="0.00" waitingCount="0" stopTime="0.00" timeLoss="8.36" rerouteNo="0" devices="tripinfo_NS_371" vType="car" speedFactor="1.10" vaporized=""/>
    <tripinfo id="NS_379" depart="379.00" departLane="2i_0" departPos="4.10" departSpeed="0.00" departDelay="0.00" arrival="461.00" arrivalLane="3o_0" arrivalPos="492.80" arrivalSpeed="10.54" duration="82.00" routeLength="995.70" waitingTime="0.00" waitingCount="0" stopTime="0.00" timeLoss="10.00" rerouteNo="0" devices="tripinfo_NS_379" vType="car" speedFactor="0.99" vaporized=""/>
    <tripinfo id="WE_377" depart="379.00" departLane="1i_0" departPos="4.10" departSpeed="0.00" departDelay="2.00" arrival="462.00" arrivalLane="3o_0" arrivalPos="492.80" arrivalSpeed="12.24" duration="83.00" routeLength="990.53" waitingTime="0.00" waitingCount="0" stopTime="0.00" timeLoss="23.12" rerouteNo="0" devices="tripinfo_WE_377" vType="car" speedFactor="1.18" vaporized=""/>
    <tripinfo id="WE_375" depart="375.00" departLane="1i_0" departPos="10.10" departSpeed="0.00" departDelay="0.00" arrival="466.00" arrivalLane="4o_0" arrivalPos="492.80" arrivalSpeed="10.49" duration="91.00" routeLength="989.70" waitingTime="0.00" waitingCount="0" stopTime="0.00" timeLoss="17.25" rerouteNo="0" devices="tripinfo_WE_375" vType="truck" speedFactor="0.96" vaporized=""/>
    <tripinfo id="WE_389" depart="390.00" departLane="1i_0" departPos="4.10" departSpeed="0.00" departDelay="1.00" arrival="470.00" arrivalLane="4o_0" arrivalPos="492.80" arrivalSpeed="11.26" duration="80.00" routeLength="995.70" waitingTime="0.00" waitingCount="0" stopTime="0.00" timeLoss="15.76" rerouteNo="0" devices="tripinfo_WE_389" vType="car" speedFactor="1.10" vaporized=""/>
    <tripinfo id="NS_392" depart="392.00" departLane="2i_0" departPos="4.10" departSpeed="0.00" departDelay="0.00" arrival="471.00" arrivalLane="3o_0" arrivalPos="492.80" arrivalSpeed="10.31" duration="79.00" routeLength="995.70" waitingTime="0.00" waitingCount="0" stopTime="0.00" timeLoss="9.92" rerouteNo="0" devices="tripinfo_NS_392" vType="car" speedFactor="1.03" vaporized=""/>
    <tripinfo id="WE_387" depart="387.00" departLane="1i_0" departPos="4.10" departSpeed="0.00" departDelay="0.00" arrival="472.00" arrivalLane="2o_0" arrivalPos="492.80" arrivalSpeed="9.82" duration="85.00" routeLength="995.90" waitingTime="0.00" waitingCount="0" stopTime="0.00" timeLoss="9.72" rerouteNo="0" devices="tripinfo_WE_387" vType="car" speedFactor="0.94" vaporized=""/>
    <tripinfo id="WE_396" depart="397.00" departLane="1i_0" departPos="4.10" departSpeed="0.00" departDelay="1.00" arrival="474.00" arrivalLane="2o_0" arrivalPos="492.80" arrivalSpeed="11.53" duration="77.00" routeLength="995.90" waitingTime="0.00" waitingCount="0" stopTime="0.00" timeLoss="15.13" rerouteNo="0" devices="tripinfo_WE_396" vType="car" speedFactor="1.15" vaporized=""/>
    <tripinfo id="WE_393" depart="394.00" departLane="1i_0" departPos="4.10" departSpeed="0.00" departDelay="1.00" arrival="476.00" arrivalLane="4o_0" arrivalPos="492.80" arrivalSpeed="10.43" duration="82.00" routeLength="995.70" waitingTime="0.00" waitingCount="0" stopTime="0.00" timeLoss="12.22" rerouteNo="0" devices="tripinfo_WE_393" vType="car" speedFactor="1.02" vaporized=""/>
    <tripinfo id="WE_400" depart="400.00" departLane="1i_0" departPos="4.10" departSpeed="0.00" departDelay="0.00" arrival="478.00" arrivalLane="3o_0" arrivalPos="492.80" arrivalSpeed="10.67" duration="78.00" routeLength="990.53" waitingTime="0.00" waitingCount="0" stopTime="0.00" timeLoss="9.83" rerouteNo="0" devices="tripinfo_WE_400" vType="car" speedFactor="1.03" vaporized=""/>
    <tripinfo id="WE_404" depart="404.00" departLane="1i_0" departPos="4.10" departSpeed="0.00" departDelay="0.00" arrival="481.00" arrivalLane="3o_0" arrivalPos="492.80" arrivalSpeed="10.48" duration="77.00" routeLength="990.53" waitingTime="0.00" waitingCount="0" stopTime="0.00" timeLoss="8.34" rerouteNo="0" devices="tripinfo_WE_404" vType="car" speedFactor="1.03" vaporized=""/>
    <tripinfo id="WE_421" depart="423.00" departLane="1i_0" departPos="4.10" departSpeed="0.00" departDelay="2.00" arrival="491.00" arrivalLane="2o_0" arrivalPos="492.80" arrivalSpeed="12.82" duration="68.00" routeLength="995.90" waitingTime="0.00" waitingCount="0" stopTime="0.00" timeLoss="9.63" rerouteNo="0" devices="tripinfo_WE_421" vType="car" speedFactor="1.23" vaporized=""/>
    <tripinfo id="NS_400" depart="400.00" departLane="2i_0" departPos="4.10" departSpeed="0.00" departDelay="0.00" arrival="496.00" arrivalLane="1o_0" arrivalPos="492.80" arrivalSpeed="9.08" duration="96.00" routeLength="995.90" waitingTime="0.00" waitingCount="0" stopTime="0.00" timeLoss="9.36" rerouteNo="0" devices="tripinfo_NS_400" vType="car" speedFactor="0.82" vaporized=""/>
    <tripinfo id="WE_420" depart="420.00" departLane="1i_0" departPos="4.10" departSpeed="0.00" departDelay="0.00" arrival="496.00" arrivalLane="3o_0" arrivalPos="492.80" arrivalSpeed="10.57" duration="76.00" routeLength="990.53" waitingTime="0.00" waitingCount="0" stopTime="0.00" timeLoss="7.57" rerouteNo="0" devices="tripinfo_WE_420" vType="car" speedFactor="1.04" vaporized=""/>