<?xml version="1.0" encoding="UTF-8"?>

<!-- generated on 2024-05-05 23:09:28 by Eclipse SUMO sumo Version 1.19.0
<configuration xmlns:xsi="http://www.w3.org/2001/XMLSchema-instance" xsi:noNamespaceSchemaLocation="http://sumo.dlr.de/xsd/sumoConfiguration.xsd">

    <input>
        <net-file value="twoone.net.xml"/>
        <route-files value="route_gen.rou.xml"/>
    </input>

    <output>
        <tripinfo-output value="tripinfo_epi474.xml"/>
    </output>

    <report>
        <no-warnings value="true"/>
    </report>

    <traci_server>
        <remote-port value="37275"/>
    </traci_server>

</configuration>
-->

<tripinfos xmlns:xsi="http://www.w3.org/2001/XMLSchema-instance" xsi:noNamespaceSchemaLocation="http://sumo.dlr.de/xsd/tripinfo_file.xsd">
    <tripinfo id="NS_11" depart="11.00" departLane="2i_0" departPos="4.10" departSpeed="0.00" departDelay="0.00" arrival="84.00" arrivalLane="4o_0" arrivalPos="492.80" arrivalSpeed="11.27" duration="73.00" routeLength="990.53" waitingTime="0.00" waitingCount="0" stopTime="0.00" timeLoss="7.82" rerouteNo="0" devices="tripinfo_NS_11" vType="car" speedFactor="1.08" vaporized=""/>
    <tripinfo id="NS_8" depart="8.00" departLane="2i_0" departPos="4.10" departSpeed="0.00" departDelay="0.00" arrival="87.00" arrivalLane="1o_0" arrivalPos="492.80" arrivalSpeed="10.34" duration="79.00" routeLength="995.90" waitingTime="0.00" waitingCount="0" stopTime="0.00" timeLoss="8.58" rerouteNo="0" devices="tripinfo_NS_8" vType="car" speedFactor="1.01" vaporized=""/>
    <tripinfo id="WE_18" depart="18.00" departLane="1i_0" departPos="4.10" departSpeed="0.00" departDelay="0.00" arrival="94.00" arrivalLane="3o_0" arrivalPos="492.80" arrivalSpeed="10.51" duration="76.00" routeLength="990.53" waitingTime="0.00" waitingCount="0" stopTime="0.00" timeLoss="7.34" rerouteNo="0" devices="tripinfo_WE_18" vType="car" speedFactor="1.03" vaporized=""/>
    <tripinfo id="EW_3" depart="3.00" departLane="4i_0" departPos="4.10" departSpeed="0.00" departDelay="0.00" arrival="102.00" arrivalLane="1o_0" arrivalPos="492.80" arrivalSpeed="10.98" duration="99.00" routeLength="990.53" waitingTime="20.00" waitingCount="1" stopTime="0.00" timeLoss="32.39" rerouteNo="0" devices="tripinfo_EW_3" vType="car" speedFactor="1.06" vaporized=""/>
    <tripinfo id="SN_4" depart="4.00" departLane="3i_0" departPos="4.10" departSpeed="0.00" departDelay="0.00" arrival="107.00" arrivalLane="2o_0" arrivalPos="492.80" arrivalSpeed="9.85" duration="103.00" routeLength="990.53" waitingTime="16.00" waitingCount="1" stopTime="0.00" timeLoss="28.11" rerouteNo="0" devices="tripinfo_SN_4" vType="car" speedFactor="0.94" vaporized=""/>
    <tripinfo id="NS_18" depart="18.00" departLane="2i_0" departPos="4.10" departSpeed="0.00" departDelay="0.00" arrival="112.00" arrivalLane="4o_0" arrivalPos="492.80" arrivalSpeed="8.26" duration="94.00" routeLength="990.53" waitingTime="0.00" waitingCount="0" stopTime="0.00" timeLoss="9.22" rerouteNo="0" devices="tripinfo_NS_18" vType="car" speedFactor="0.83" vaporized=""/>
    <tripinfo id="NS_26" depart="27.00" departLane="2i_0" departPos="4.10" departSpeed="0.00" departDelay="1.00" arrival="112.00" arrivalLane="1o_0" arrivalPos="492.80" arrivalSpeed="11.29" duration="85.00" routeLength="995.90" waitingTime="1.00" waitingCount="1" stopTime="0.00" timeLoss="19.90" rerouteNo="0" devices="tripinfo_NS_26" vType="car" speedFactor="1.09" vaporized=""/>
    <tripinfo id="NS_19" depart="21.00" departLane="2i_0" departPos="4.10" departSpeed="0.00" departDelay="2.00" arrival="114.00" arrivalLane="4o_0" arrivalPos="492.80" arrivalSpeed="10.59" duration="93.00" routeLength="990.53" waitingTime="0.00" waitingCount="0" stopTime="0.00" timeLoss="25.09" rerouteNo="0" devices="tripinfo_NS_19" vType="car" speedFactor="1.05" vaporized=""/>
    <tripinfo id="NS_25" depart="25.00" departLane="2i_0" departPos="4.10" departSpeed="0.00" departDelay="0.00" arrival="117.00" arrivalLane="3o_0" arrivalPos="492.80" arrivalSpeed="8.71" duration="92.00" routeLength="995.70" waitingTime="0.00" waitingCount="0" stopTime="0.00" timeLoss="9.37" rerouteNo="0" devices="tripinfo_NS_25" vType="car" speedFactor="0.86" vaporized=""/>
    <tripinfo id="SN_19" depart="19.00" departLane="3i_0" departPos="4.10" departSpeed="0.00" departDelay="0.00" arrival="119.00" arrivalLane="4o_0" arrivalPos="492.80" arrivalSpeed="8.76" duration="100.00" routeLength="995.90" waitingTime="3.00" waitingCount="2" stopTime="0.00" timeLoss="19.95" rerouteNo="0" devices="tripinfo_SN_19" vType="car" speedFactor="0.89" vaporized=""/>
    <tripinfo id="NS_31" depart="31.00" departLane="2i_0" departPos="4.10" departSpeed="0.00" departDelay="0.00" arrival="119.00" arrivalLane="3o_0" arrivalPos="492.80" arrivalSpeed="11.29" duration="88.00" routeLength="995.70" waitingTime="1.00" waitingCount="1" stopTime="0.00" timeLoss="24.63" rerouteNo="0" devices="tripinfo_NS_31" vType="car" speedFactor="1.12" vaporized=""/>
    <tripinfo id="NS_33" depart="34.00" departLane="2i_0" departPos="4.10" departSpeed="0.00" departDelay="1.00" arrival="121.00" arrivalLane="4o_0" arrivalPos="492.80" arrivalSpeed="10.12" duration="87.00" routeLength="990.53" waitingTime="0.00" waitingCount="0" stopTime="0.00" timeLoss="15.55" rerouteNo="0" devices="tripinfo_NS_33" vType="car" speedFactor="0.99" vaporized=""/>
    <tripinfo id="SN_23" depart="23.00" departLane="3i_0" departPos="4.10" departSpeed="0.00" departDelay="0.00" arrival="125.00" arrivalLane="1o_0" arrivalPos="492.80" arrivalSpeed="9.48" duration="102.00" routeLength="995.70" waitingTime="2.00" waitingCount="2" stopTime="0.00" timeLoss="26.32" rerouteNo="0" devices="tripinfo_SN_23" vType="car" speedFactor="0.94" vaporized=""/>
    <tripinfo id="NS_40" depart="40.00" departLane="2i_0" departPos="4.10" departSpeed="0.00" departDelay="0.00" arrival="128.00" arrivalLane="1o_0" arrivalPos="492.80" arrivalSpeed="10.19" duration="88.00" routeLength="995.90" waitingTime="0.00" waitingCount="0" stopTime="0.00" timeLoss="10.94" rerouteNo="0" devices="tripinfo_NS_40" vType="car" speedFactor="0.93" vaporized=""/>
    <tripinfo id="NS_55" depart="55.00" departLane="2i_0" departPos="4.10" departSpeed="0.00" departDelay="0.00" arrival="129.00" arrivalLane="1o_0" arrivalPos="492.80" arrivalSpeed="11.25" duration="74.00" routeLength="995.90" waitingTime="0.00" waitingCount="0" stopTime="0.00" timeLoss="12.62" rerouteNo="0" devices="tripinfo_NS_55" vType="car" speedFactor="1.16" vaporized=""/>
    <tripinfo id="NS_61" depart="61.00" departLane="2i_0" departPos="4.10" departSpeed="0.00" departDelay="0.00" arrival="139.00" arrivalLane="4o_0" arrivalPos="492.80" arrivalSpeed="10.16" duration="78.00" routeLength="990.53" waitingTime="0.00" waitingCount="0" stopTime="0.00" timeLoss="8.68" rerouteNo="0" devices="tripinfo_NS_61" vType="car" speedFactor="1.02" vaporized=""/>
    <tripinfo id="WE_81" depart="81.00" departLane="1i_0" departPos="4.10" departSpeed="0.00" departDelay="0.00" arrival="151.00" arrivalLane="3o_0" arrivalPos="492.80" arrivalSpeed="12.19" duration="70.00" routeLength="990.53" waitingTime="0.00" waitingCount="0" stopTime="0.00" timeLoss="9.48" rerouteNo="0" devices="tripinfo_WE_81" vType="car" speedFactor="1.18" vaporized=""/>
    <tripinfo id="NS_74" depart="74.00" departLane="2i_0" departPos="4.10" departSpeed="0.00" departDelay="0.00" arrival="159.00" arrivalLane="4o_0" arrivalPos="492.80" arrivalSpeed="9.27" duration="85.00" routeLength="990.53" waitingTime="0.00" waitingCount="0" stopTime="0.00" timeLoss="8.19" rerouteNo="0" devices="tripinfo_NS_74" vType="car" speedFactor="0.92" vaporized=""/>
    <tripinfo id="WE_75" depart="75.00" departLane="1i_0" departPos="4.10" departSpeed="0.00" departDelay="0.00" arrival="161.00" arrivalLane="4o_0" arrivalPos="492.80" arrivalSpeed="11.81" duration="86.00" routeLength="995.70" waitingTime="0.00" waitingCount="0" stopTime="0.00" timeLoss="22.88" rerouteNo="0" devices="tripinfo_WE_75" vType="car" speedFactor="1.13" vaporized=""/>
    <tripinfo id="EW_31" depart="31.00" departLane="4i_0" departPos="10.10" departSpeed="0.00" departDelay="0.00" arrival="163.00" arrivalLane="3o_0" arrivalPos="492.80" arrivalSpeed="11.27" duration="132.00" routeLength="989.90" waitingTime="42.00" waitingCount="1" stopTime="0.00" timeLoss="62.49" rerouteNo="0" devices="tripinfo_EW_31" vType="truck" speedFactor="1.02" vaporized=""/>
    <tripinfo id="WE_70" depart="70.00" departLane="1i_0" departPos="4.10" departSpeed="0.00" departDelay="0.00" arrival="165.00" arrivalLane="2o_0" arrivalPos="492.80" arrivalSpeed="8.00" duration="95.00" routeLength="995.90" waitingTime="0.00" waitingCount="0" stopTime="0.00" timeLoss="8.90" rerouteNo="0" devices="tripinfo_WE_70" vType="car" speedFactor="0.83" vaporized=""/>
    <tripinfo id="SN_27" depart="27.00" departLane="3i_0" departPos="4.10" departSpeed="0.00" departDelay="0.00" arrival="166.00" arrivalLane="2o_0" arrivalPos="492.80" arrivalSpeed="11.33" duration="139.00" routeLength="990.53" waitingTime="39.00" waitingCount="2" stopTime="0.00" timeLoss="70.51" rerouteNo="0" devices="tripinfo_SN_27" vType="car" speedFactor="1.03" vaporized=""/>
    <tripinfo id="SN_54" depart="54.00" departLane="3i_0" departPos="4.10" departSpeed="0.00" departDelay="0.00" arrival="169.00" arrivalLane="2o_0" arrivalPos="492.80" arrivalSpeed="9.26" duration="115.00" routeLength="990.53" waitingTime="24.00" waitingCount="1" stopTime="0.00" timeLoss="39.39" rerouteNo="0" devices="tripinfo_SN_54" vType="car" speedFactor="0.94" vaporized=""/>
    <tripinfo id="SN_65" depart="65.00" departLane="3i_0" departPos="4.10" departSpeed="0.00" departDelay="0.00" arrival="171.00" arrivalLane="2o_0" arrivalPos="492.80" arrivalSpeed="10.03" duration="106.00" routeLength="990.53" waitingTime="15.00" waitingCount="1" stopTime="0.00" timeLoss="33.38" rerouteNo="0" devices="tripinfo_SN_65" vType="car" speedFactor="0.97" vaporized=""/>
    <tripinfo id="EW_42" depart="42.00" departLane="4i_0" departPos="4.10" departSpeed="0.00" departDelay="0.00" arrival="174.00" arrivalLane="3o_0" arrivalPos="492.80" arrivalSpeed="9.07" duration="132.00" routeLength="995.90" waitingTime="33.00" waitingCount="1" stopTime="0.00" timeLoss="51.44" rerouteNo="0" devices="tripinfo_EW_42" vType="car" speedFactor="0.88" vaporized=""/>
    <tripinfo id="EW_49" depart="49.00" departLane="4i_0" departPos="4.10" departSpeed="0.00" departDelay="0.00" arrival="175.00" arrivalLane="2o_0" arrivalPos="492.80" arrivalSpeed="9.70" duration="126.00" routeLength="995.70" waitingTime="31.00" waitingCount="1" stopTime="0.00" timeLoss="50.42" rerouteNo="0" devices="tripinfo_EW_49" vType="car" speedFactor="0.94" vaporized=""/>
    <tripinfo id="WE_90" depart="90.00" departLane="1i_0" departPos="4.10" departSpeed="0.00" departDelay="0.00" arrival="176.00" arrivalLane="3o_0" arrivalPos="492.80" arrivalSpeed="10.25" duration="86.00" routeLength="990.53" waitingTime="0.00" waitingCount="0" stopTime="0.00" timeLoss="14.82" rerouteNo="0" devices="tripinfo_WE_90" vType="car" speedFactor="0.99" vaporized=""/>
    <tripinfo id="EW_65" depart="65.00" departLane="4i_0" departPos="4.10" departSpeed="0.00" departDelay="0.00" arrival="178.00" arrivalLane="3o_0" arrivalPos="492.80" arrivalSpeed="10.87" duration="113.00" routeLength="995.90" waitingTime="18.00" waitingCount="1" stopTime="0.00" timeLoss="42.32" rerouteNo="0" devices="tripinfo_EW_65" vType="car" speedFactor="1.01" vaporized=""/>
    <tripinfo id="SN_74" depart="74.00" departLane="3i_0" departPos="4.10" departSpeed="0.00" departDelay="0.00" arrival="181.00" arrivalLane="4o_0" arrivalPos="492.80" arrivalSpeed="10.42" duration="107.00" routeLength="995.90" waitingTime="8.00" waitingCount="1" stopTime="0.00" timeLoss="32.65" rerouteNo="0" devices="tripinfo_SN_74" vType="car" speedFactor="0.95" vaporized=""/>
    <tripinfo id="SN_71" depart="71.00" departLane="3i_0" departPos="4.10" departSpeed="0.00" departDelay="0.00" arrival="182.00" arrivalLane="2o_0" arrivalPos="492.80" arrivalSpeed="9.27" duration="111.00" routeLength="990.53" waitingTime="10.00" waitingCount="2" stopTime="0.00" timeLoss="30.39" rerouteNo="0" devices="tripinfo_SN_71" vType="car" speedFactor="0.87" vaporized=""/>
    <tripinfo id="SN_82" depart="82.00" departLane="3i_0" departPos="4.10" departSpeed="0.00" departDelay="0.00" arrival="183.00" arrivalLane="4o_0" arrivalPos="492.80" arrivalSpeed="12.24" duration="101.00" routeLength="995.90" waitingTime="8.00" waitingCount="2" stopTime="0.00" timeLoss="39.44" rerouteNo="0" devices="tripinfo_SN_82" vType="car" speedFactor="1.15" vaporized=""/>
    <tripinfo id="EW_68" depart="68.00" departLane="4i_0" departPos="4.10" departSpeed="0.00" departDelay="0.00" arrival="185.00" arrivalLane="3o_0" arrivalPos="492.80" arrivalSpeed="9.72" duration="117.00" routeLength="995.90" waitingTime="13.00" waitingCount="1" stopTime="0.00" timeLoss="37.38" rerouteNo="0" devices="tripinfo_EW_68" vType="car" speedFactor="0.89" vaporized=""/>
    <tripinfo id="WE_102" depart="102.00" departLane="1i_0" departPos="4.10" departSpeed="0.00" departDelay="0.00" arrival="187.00" arrivalLane="3o_0" arrivalPos="492.80" arrivalSpeed="11.94" duration="85.00" routeLength="990.53" waitingTime="0.00" waitingCount="0" stopTime="0.00" timeLoss="24.77" rerouteNo="0" devices="tripinfo_WE_102" vType="car" speedFactor="1.18" vaporized=""/>
    <tripinfo id="NS_98" depart="98.00" departLane="2i_0" departPos="4.10" departSpeed="0.00" departDelay="0.00" arrival="189.00" arrivalLane="3o_0" arrivalPos="492.80" arrivalSpeed="10.05" duration="91.00" routeLength="995.70" waitingTime="1.00" waitingCount="1" stopTime="0.00" timeLoss="17.72" rerouteNo="0" devices="tripinfo_NS_98" vType="car" speedFactor="0.97" vaporized=""/>
    <tripinfo id="EW_80" depart="80.00" departLane="4i_0" departPos="4.10" departSpeed="0.00" departDelay="0.00" arrival="191.00" arrivalLane="3o_0" arrivalPos="492.80" arrivalSpeed="9.08" duration="111.00" routeLength="995.90" waitingTime="6.00" waitingCount="2" stopTime="0.00" timeLoss="35.17" rerouteNo="0" devices="tripinfo_EW_80" vType="car" speedFactor="0.93" vaporized=""/>
    <tripinfo id="SN_88" depart="88.00" departLane="3i_0" departPos="4.10" departSpeed="0.00" departDelay="0.00" arrival="193.00" arrivalLane="2o_0" arrivalPos="492.80" arrivalSpeed="10.57" duration="105.00" routeLength="990.53" waitingTime="5.00" waitingCount="2" stopTime="0.00" timeLoss="35.00" rerouteNo="0" devices="tripinfo_SN_88" vType="car" speedFactor="1.01" vaporized=""/>
    <tripinfo id="EW_90" depart="90.00" departLane="4i_0" departPos="4.10" departSpeed="0.00" departDelay="0.00" arrival="193.00" arrivalLane="3o_0" arrivalPos="492.80" arrivalSpeed="10.25" duration="103.00" routeLength="995.90" waitingTime="4.00" waitingCount="2" stopTime="0.00" timeLoss="33.77" rerouteNo="0" devices="tripinfo_EW_90" vType="car" speedFactor="1.02" vaporized=""/>
    <tripinfo id="SN_89" depart="91.00" departLane="3i_0" departPos="4.10" departSpeed="0.00" departDelay="2.00" arrival="198.00" arrivalLane="2o_0" arrivalPos="492.80" arrivalSpeed="12.95" duration="107.00" routeLength="990.53" waitingTime="9.00" waitingCount="3" stopTime="0.00" timeLoss="46.40" rerouteNo="0" devices="tripinfo_SN_89" vType="car" speedFactor="1.17" vaporized=""/>
    <tripinfo id="SN_103" depart="103.00" departLane="3i_0" departPos="4.10" departSpeed="0.00" departDelay="0.00" arrival="202.00" arrivalLane="2o_0" arrivalPos="492.80" arrivalSpeed="12.09" duration="99.00" routeLength="990.53" waitingTime="7.00" waitingCount="2" stopTime="0.00" timeLoss="35.10" rerouteNo="0" devices="tripinfo_SN_103" vType="car" speedFactor="1.10" vaporized=""/>
    <tripinfo id="EW_114" depart="114.00" departLane="4i_0" departPos="4.10" departSpeed="0.00" departDelay="0.00" arrival="205.00" arrivalLane="2o_0" arrivalPos="492.80" arrivalSpeed="11.48" duration="91.00" routeLength="995.70" waitingTime="6.00" waitingCount="1" stopTime="0.00" timeLoss="26.22" rerouteNo="0" devices="tripinfo_EW_114" vType="car" speedFactor="1.09" vaporized=""/>
    <tripinfo id="EW_104" depart="104.00" departLane="4i_0" departPos="4.10" departSpeed="0.00" departDelay="0.00" arrival="210.00" arrivalLane="1o_0" arrivalPos="492.80" arrivalSpeed="9.12" duration="106.00" routeLength="990.53" waitingTime="8.00" waitingCount="2" stopTime="0.00" timeLoss="27.24" rerouteNo="0" devices="tripinfo_EW_104" vType="car" speedFactor="0.90" vaporized=""/>
    <tripinfo id="WE_136" depart="136.00" departLane="1i_0" departPos="4.10" departSpeed="0.00" departDelay="0.00" arrival="211.00" arrivalLane="4o_0" arrivalPos="492.80" arrivalSpeed="11.70" duration="75.00" routeLength="995.70" waitingTime="0.00" waitingCount="0" stopTime="0.00" timeLoss="14.68" rerouteNo="0" devices="tripinfo_WE_136" vType="car" speedFactor="1.17" vaporized=""/>
    <tripinfo id="WE_126" depart="129.00" departLane="1i_0" departPos="4.10" departSpeed="0.00" departDelay="3.00" arrival="218.00" arrivalLane="2o_0" arrivalPos="492.80" arrivalSpeed="9.51" duration="89.00" routeLength="995.90" waitingTime="0.00" waitingCount="0" stopTime="0.00" timeLoss="9.80" rerouteNo="0" devices="tripinfo_WE_126" vType="car" speedFactor="0.90" vaporized=""/>
    <tripinfo id="SN_111" depart="111.00" departLane="3i_0" departPos="10.10" departSpeed="0.00" departDelay="0.00" arrival="223.00" arrivalLane="4o_0" arrivalPos="492.80" arrivalSpeed="11.02" duration="112.00" routeLength="989.90" waitingTime="9.00" waitingCount="3" stopTime="0.00" timeLoss="42.31" rerouteNo="0" devices="tripinfo_SN_111" vType="truck" speedFactor="1.02" vaporized=""/>
    <tripinfo id="NS_130" depart="130.00" departLane="2i_0" departPos="4.10" departSpeed="0.00" departDelay="0.00" arrival="223.00" arrivalLane="1o_0" arrivalPos="492.80" arrivalSpeed="9.24" duration="93.00" routeLength="995.90" waitingTime="0.00" waitingCount="0" stopTime="0.00" timeLoss="9.19" rerouteNo="0" devices="tripinfo_NS_130" vType="car" speedFactor="0.85" vaporized=""/>
    <tripinfo id="NS_141" depart="141.00" departLane="2i_0" departPos="4.10" departSpeed="0.00" departDelay="0.00" arrival="225.00" arrivalLane="4o_0" arrivalPos="492.80" arrivalSpeed="12.17" duration="84.00" routeLength="990.53" waitingTime="2.00" waitingCount="1" stopTime="0.00" timeLoss="19.56" rerouteNo="0" devices="tripinfo_NS_141" vType="car" speedFactor="1.10" vaporized=""/>
    <tripinfo id="EW_116" depart="117.00" departLane="4i_0" departPos="4.10" departSpeed="0.00" departDelay="1.00" arrival="226.00" arrivalLane="2o_0" arrivalPos="492.80" arrivalSpeed="11.06" duration="109.00" routeLength="995.70" waitingTime="16.00" waitingCount="3" stopTime="0.00" timeLoss="41.04" rerouteNo="0" devices="tripinfo_EW_116" vType="car" speedFactor="1.04" vaporized=""/>
    <tripinfo id="NS_134" depart="134.00" departLane="2i_0" departPos="4.10" departSpeed="0.00" departDelay="0.00" arrival="228.00" arrivalLane="3o_0" arrivalPos="492.80" arrivalSpeed="8.86" duration="94.00" routeLength="995.70" waitingTime="0.00" waitingCount="0" stopTime="0.00" timeLoss="11.32" rerouteNo="0" devices="tripinfo_NS_134" vType="car" speedFactor="0.85" vaporized=""/>
    <tripinfo id="EW_123" depart="123.00" departLane="4i_0" departPos="4.10" departSpeed="0.00" departDelay="0.00" arrival="231.00" arrivalLane="3o_0" arrivalPos="492.80" arrivalSpeed="10.66" duration="108.00" routeLength="995.90" waitingTime="12.00" waitingCount="3" stopTime="0.00" timeLoss="37.15" rerouteNo="0" devices="tripinfo_EW_123" vType="car" speedFactor="1.00" vaporized=""/>
    <tripinfo id="WE_153" depart="153.00" departLane="1i_0" departPos="4.10" departSpeed="0.00" departDelay="0.00" arrival="235.00" arrivalLane="3o_0" arrivalPos="492.80" arrivalSpeed="9.87" duration="82.00" routeLength="990.53" waitingTime="0.00" waitingCount="0" stopTime="0.00" timeLoss="10.89" rerouteNo="0" devices="tripinfo_WE_153" vType="car" speedFactor="1.00" vaporized=""/>
    <tripinfo id="SN_117" depart="119.00" departLane="3i_0" departPos="4.10" departSpeed="0.00" departDelay="2.00" arrival="237.00" arrivalLane="2o_0" arrivalPos="492.80" arrivalSpeed="10.86" duration="118.00" routeLength="990.53" waitingTime="11.00" waitingCount="5" stopTime="0.00" timeLoss="50.56" rerouteNo="0" devices="tripinfo_SN_117" vType="car" speedFactor="1.04" vaporized=""/>
    <tripinfo id="SN_113" depart="115.00" departLane="3i_0" departPos="4.10" departSpeed="0.00" departDelay="2.00" arrival="238.00" arrivalLane="1o_0" arrivalPos="492.80" arrivalSpeed="9.42" duration="123.00" routeLength="995.70" waitingTime="14.00" waitingCount="5" stopTime="0.00" timeLoss="48.61" rerouteNo="0" devices="tripinfo_SN_113" vType="car" speedFactor="0.96" vaporized=""/>
    <tripinfo id="NS_145" depart="145.00" departLane="2i_0" departPos="4.10" departSpeed="0.00" departDelay="0.00" arrival="240.00" arrivalLane="3o_0" arrivalPos="492.80" arrivalSpeed="11.06" duration="95.00" routeLength="995.70" waitingTime="5.00" waitingCount="1" stopTime="0.00" timeLoss="23.77" rerouteNo="0" devices="tripinfo_NS_145" vType="car" speedFactor="1.00" vaporized=""/>
    <tripinfo id="SN_120" depart="122.00" departLane="3i_0" departPos="4.10" departSpeed="0.00" departDelay="2.00" arrival="244.00" arrivalLane="4o_0" arrivalPos="492.80" arrivalSpeed="11.98" duration="122.00" routeLength="995.90" waitingTime="11.00" waitingCount="6" stopTime="0.00" timeLoss="57.13" rerouteNo="0" devices="tripinfo_SN_120" vType="car" speedFactor="1.09" vaporized=""/>
    <tripinfo id="NS_153" depart="153.00" departLane="2i_0" departPos="10.10" departSpeed="0.00" departDelay="0.00" arrival="245.00" arrivalLane="3o_0" arrivalPos="492.80" arrivalSpeed="10.41" duration="92.00" routeLength="989.70" waitingTime="0.00" waitingCount="0" stopTime="0.00" timeLoss="17.43" rerouteNo="0" devices="tripinfo_NS_153" vType="truck" speedFactor="0.95" vaporized=""/>
    <tripinfo id="EW_165" depart="165.00" departLane="4i_0" departPos="4.10" departSpeed="0.00" departDelay="0.00" arrival="245.00" arrivalLane="1o_0" arrivalPos="492.80" arrivalSpeed="11.11" duration="80.00" routeLength="990.53" waitingTime="5.00" waitingCount="1" stopTime="0.00" timeLoss="14.92" rerouteNo="0" devices="tripinfo_EW_165" vType="car" speedFactor="1.08" vaporized=""/>
    <tripinfo id="NS_159" depart="159.00" departLane="2i_0" departPos="10.10" departSpeed="0.00" departDelay="0.00" arrival="253.00" arrivalLane="3o_0" arrivalPos="492.80" arrivalSpeed="11.48" duration="94.00" routeLength="989.70" waitingTime="3.00" waitingCount="1" stopTime="0.00" timeLoss="26.88" rerouteNo="0" devices="tripinfo_NS_159" vType="truck" speedFactor="1.07" vaporized=""/>
    <tripinfo id="WE_164" depart="164.00" departLane="1i_0" departPos="4.10" departSpeed="0.00" departDelay="0.00" arrival="253.00" arrivalLane="2o_0" arrivalPos="492.80" arrivalSpeed="10.08" duration="89.00" routeLength="995.90" waitingTime="2.00" waitingCount="1" stopTime="0.00" timeLoss="15.83" rerouteNo="0" devices="tripinfo_WE_164" vType="car" speedFactor="0.97" vaporized=""/>
    <tripinfo id="WE_175" depart="175.00" departLane="1i_0" departPos="4.10" departSpeed="0.00" departDelay="0.00" arrival="260.00" arrivalLane="3o_0" arrivalPos="492.80" arrivalSpeed="10.77" duration="85.00" routeLength="990.53" waitingTime="0.00" waitingCount="0" stopTime="0.00" timeLoss="13.64" rerouteNo="0" devices="tripinfo_WE_175" vType="car" speedFactor="0.99" vaporized=""/>
    <tripinfo id="SN_128" depart="128.00" departLane="3i_0" departPos="4.10" departSpeed="0.00" departDelay="0.00" arrival="261.00" arrivalLane="2o_0" arrivalPos="492.80" arrivalSpeed="8.91" duration="133.00" routeLength="990.53" waitingTime="7.00" waitingCount="3" stopTime="0.00" timeLoss="52.77" rerouteNo="0" devices="tripinfo_SN_128" vType="car" speedFactor="0.88" vaporized=""/>
    <tripinfo id="SN_138" depart="138.00" departLane="3i_0" departPos="4.10" departSpeed="0.00" departDelay="0.00" arrival="261.00" arrivalLane="4o_0" arrivalPos="492.80" arrivalSpeed="11.02" duration="123.00" routeLength="995.90" waitingTime="8.00" waitingCount="5" stopTime="0.00" timeLoss="53.11" rerouteNo="0" devices="tripinfo_SN_138" vType="car" speedFactor="1.02" vaporized=""/>
    <tripinfo id="NS_168" depart="169.00" departLane="2i_0" departPos="4.10" departSpeed="0.00" departDelay="1.00" arrival="262.00" arrivalLane="3o_0" arrivalPos="492.80" arrivalSpeed="11.75" duration="93.00" routeLength="995.70" waitingTime="4.00" waitingCount="2" stopTime="0.00" timeLoss="29.42" rerouteNo="0" devices="tripinfo_NS_168" vType="car" speedFactor="1.12" vaporized=""/>
    <tripinfo id="SN_159" depart="159.00" departLane="3i_0" departPos="4.10" departSpeed="0.00" departDelay="0.00" arrival="264.00" arrivalLane="2o_0" arrivalPos="492.80" arrivalSpeed="11.08" duration="105.00" routeLength="990.53" waitingTime="3.00" waitingCount="3" stopTime="0.00" timeLoss="36.23" rerouteNo="0" devices="tripinfo_SN_159" vType="car" speedFactor="1.02" vaporized=""/>
    <tripinfo id="WE_186" depart="186.00" departLane="1i_0" departPos="4.10" departSpeed="0.00" departDelay="0.00" arrival="267.00" arrivalLane="3o_0" arrivalPos="492.80" arrivalSpeed="11.33" duration="81.00" routeLength="990.53" waitingTime="3.00" waitingCount="1" stopTime="0.00" timeLoss="12.69" rerouteNo="0" devices="tripinfo_WE_186" vType="car" speedFactor="1.04" vaporized=""/>
    <tripinfo id="NS_170" depart="175.00" departLane="2i_0" departPos="10.10" departSpeed="0.00" departDelay="5.00" arrival="269.00" arrivalLane="4o_0" arrivalPos="492.80" arrivalSpeed="11.16" duration="94.00" routeLength="984.53" waitingTime="1.00" waitingCount="1" stopTime="0.00" timeLoss="24.00" rerouteNo="0" devices="tripinfo_NS_170" vType="truck" speedFactor="1.01" vaporized=""/>
    <tripinfo id="NS_175" depart="179.00" departLane="2i_0" departPos="4.10" departSpeed="0.00" departDelay="4.00" arrival="275.00" arrivalLane="1o_0" arrivalPos="492.80" arrivalSpeed="9.33" duration="96.00" routeLength="995.90" waitingTime="0.00" waitingCount="0" stopTime="0.00" timeLoss="20.28" rerouteNo="0" devices="tripinfo_NS_175" vType="car" speedFactor="0.94" vaporized=""/>
    <tripinfo id="SN_192" depart="193.00" departLane="3i_0" departPos="4.10" departSpeed="0.00" departDelay="1.00" arrival="277.00" arrivalLane="1o_0" arrivalPos="492.80" arrivalSpeed="11.23" duration="84.00" routeLength="995.70" waitingTime="1.00" waitingCount="1" stopTime="0.00" timeLoss="14.56" rerouteNo="0" devices="tripinfo_SN_192" vType="car" speedFactor="1.02" vaporized=""/>
    <tripinfo id="NS_187" depart="191.00" departLane="2i_0" departPos="4.10" departSpeed="0.00" departDelay="4.00" arrival="279.00" arrivalLane="1o_0" arrivalPos="492.80" arrivalSpeed="11.34" duration="88.00" routeLength="995.90" waitingTime="0.00" waitingCount="0" stopTime="0.00" timeLoss="18.09" rerouteNo="0" devices="tripinfo_NS_187" vType="car" speedFactor="1.02" vaporized=""/>
    <tripinfo id="NS_177" depart="182.00" departLane="2i_0" departPos="4.10" departSpeed="0.00" departDelay="5.00" arrival="281.00" arrivalLane="3o_0" arrivalPos="492.80" arrivalSpeed="8.75" duration="99.00" routeLength="995.70" waitingTime="0.00" waitingCount="0" stopTime="0.00" timeLoss="18.73" rerouteNo="0" devices="tripinfo_NS_177" vType="car" speedFactor="0.88" vaporized=""/>
    <tripinfo id="NS_182" depart="185.00" departLane="2i_0" departPos="4.10" departSpeed="0.00" departDelay="3.00" arrival="281.00" arrivalLane="4o_0" arrivalPos="492.80" arrivalSpeed="9.72" duration="96.00" routeLength="990.53" waitingTime="0.00" waitingCount="0" stopTime="0.00" timeLoss="17.95" rerouteNo="0" devices="tripinfo_NS_182" vType="car" speedFactor="0.91" vaporized=""/>
    <tripinfo id="WE_198" depart="198.00" departLane="1i_0" departPos="4.10" departSpeed="0.00" departDelay="0.00" arrival="281.00" arrivalLane="2o_0" arrivalPos="492.80" arrivalSpeed="9.41" duration="83.00" routeLength="995.90" waitingTime="0.00" waitingCount="0" stopTime="0.00" timeLoss="8.89" rerouteNo="0" devices="tripinfo_WE_198" vType="car" speedFactor="0.96" vaporized=""/>
    <tripinfo id="NS_185" depart="187.00" departLane="2i_0" departPos="4.10" departSpeed="0.00" departDelay="2.00" arrival="283.00" arrivalLane="4o_0" arrivalPos="492.80" arrivalSpeed="9.25" duration="96.00" routeLength="990.53" waitingTime="0.00" waitingCount="0" stopTime="0.00" timeLoss="18.88" rerouteNo="0" devices="tripinfo_NS_185" vType="car" speedFactor="0.91" vaporized=""/>
    <tripinfo id="WE_202" depart="202.00" departLane="1i_0" departPos="4.10" departSpeed="0.00" departDelay="0.00" arrival="283.00" arrivalLane="3o_0" arrivalPos="492.80" arrivalSpeed="10.30" duration="81.00" routeLength="990.53" waitingTime="0.00" waitingCount="0" stopTime="0.00" timeLoss="9.05" rerouteNo="0" devices="tripinfo_WE_202" vType="car" speedFactor="0.98" vaporized=""/>
    <tripinfo id="SN_193" depart="196.00" departLane="3i_0" departPos="4.10" departSpeed="0.00" departDelay="3.00" arrival="285.00" arrivalLane="2o_0" arrivalPos="492.80" arrivalSpeed="10.37" duration="89.00" routeLength="990.53" waitingTime="1.00" waitingCount="1" stopTime="0.00" timeLoss="16.76" rerouteNo="0" devices="tripinfo_SN_193" vType="car" speedFactor="0.97" vaporized=""/>
    <tripinfo id="NS_196" depart="198.00" departLane="2i_0" departPos="4.10" departSpeed="0.00" departDelay="2.00" arrival="285.00" arrivalLane="4o_0" arrivalPos="492.80" arrivalSpeed="10.44" duration="87.00" routeLength="990.53" waitingTime="0.00" waitingCount="0" stopTime="0.00" timeLoss="19.67" rerouteNo="0" devices="tripinfo_NS_196" vType="car" speedFactor="1.06" vaporized=""/>
    <tripinfo id="EW_201" depart="201.00" departLane="4i_0" departPos="4.10" departSpeed="0.00" departDelay="0.00" arrival="285.00" arrivalLane="3o_0" arrivalPos="492.80" arrivalSpeed="9.75" duration="84.00" routeLength="995.90" waitingTime="0.00" waitingCount="0" stopTime="0.00" timeLoss="11.75" rerouteNo="0" devices="tripinfo_EW_201" vType="car" speedFactor="0.98" vaporized=""/>