<?xml version="1.0" encoding="UTF-8"?>

<!-- generated on 2024-05-05 22:17:28 by Eclipse SUMO sumo Version 1.19.0
<configuration xmlns:xsi="http://www.w3.org/2001/XMLSchema-instance" xsi:noNamespaceSchemaLocation="http://sumo.dlr.de/xsd/sumoConfiguration.xsd">

    <input>
        <net-file value="twoone.net.xml"/>
        <route-files value="route_gen.rou.xml"/>
    </input>

    <output>
        <tripinfo-output value="tripinfo_epi250.xml"/>
    </output>

    <report>
        <no-warnings value="true"/>
    </report>

    <traci_server>
        <remote-port value="48523"/>
    </traci_server>

</configuration>
-->

<tripinfos xmlns:xsi="http://www.w3.org/2001/XMLSchema-instance" xsi:noNamespaceSchemaLocation="http://sumo.dlr.de/xsd/tripinfo_file.xsd">
    <tripinfo id="WE_2" depart="2.00" departLane="1i_0" departPos="4.10" departSpeed="0.00" departDelay="0.00" arrival="76.00" arrivalLane="3o_0" arrivalPos="492.80" arrivalSpeed="11.58" duration="74.00" routeLength="990.53" waitingTime="0.00" waitingCount="0" stopTime="0.00" timeLoss="6.89" rerouteNo="0" devices="tripinfo_WE_2" vType="car" speedFactor="1.06" vaporized=""/>
    <tripinfo id="SN_2" depart="2.00" departLane="3i_0" departPos="4.10" departSpeed="0.00" departDelay="0.00" arrival="91.00" arrivalLane="4o_0" arrivalPos="492.80" arrivalSpeed="9.24" duration="89.00" routeLength="995.90" waitingTime="1.00" waitingCount="1" stopTime="0.00" timeLoss="13.83" rerouteNo="0" devices="tripinfo_SN_2" vType="car" speedFactor="0.94" vaporized=""/>
    <tripinfo id="NS_14" depart="14.00" departLane="2i_0" departPos="4.10" departSpeed="0.00" departDelay="0.00" arrival="93.00" arrivalLane="3o_0" arrivalPos="492.80" arrivalSpeed="10.39" duration="79.00" routeLength="995.70" waitingTime="0.00" waitingCount="0" stopTime="0.00" timeLoss="10.02" rerouteNo="0" devices="tripinfo_NS_14" vType="car" speedFactor="1.03" vaporized=""/>
    <tripinfo id="WE_8" depart="11.00" departLane="1i_0" departPos="4.10" departSpeed="0.00" departDelay="3.00" arrival="95.00" arrivalLane="3o_0" arrivalPos="492.80" arrivalSpeed="11.26" duration="84.00" routeLength="990.53" waitingTime="0.00" waitingCount="0" stopTime="0.00" timeLoss="19.09" rerouteNo="0" devices="tripinfo_WE_8" vType="car" speedFactor="1.08" vaporized=""/>
    <tripinfo id="WE_7" depart="7.00" departLane="1i_0" departPos="10.10" departSpeed="0.00" departDelay="0.00" arrival="97.00" arrivalLane="4o_0" arrivalPos="492.80" arrivalSpeed="11.14" duration="90.00" routeLength="989.70" waitingTime="0.00" waitingCount="0" stopTime="0.00" timeLoss="19.55" rerouteNo="0" devices="tripinfo_WE_7" vType="truck" speedFactor="1.01" vaporized=""/>
    <tripinfo id="WE_30" depart="30.00" departLane="1i_0" departPos="4.10" departSpeed="0.00" departDelay="0.00" arrival="105.00" arrivalLane="4o_0" arrivalPos="492.80" arrivalSpeed="11.55" duration="75.00" routeLength="995.70" waitingTime="0.00" waitingCount="0" stopTime="0.00" timeLoss="9.81" rerouteNo="0" devices="tripinfo_WE_30" vType="car" speedFactor="1.09" vaporized=""/>
    <tripinfo id="EW_19" depart="19.00" departLane="4i_0" departPos="4.10" departSpeed="0.00" departDelay="0.00" arrival="111.00" arrivalLane="3o_0" arrivalPos="492.80" arrivalSpeed="9.74" duration="92.00" routeLength="995.90" waitingTime="0.00" waitingCount="0" stopTime="0.00" timeLoss="11.41" rerouteNo="0" devices="tripinfo_EW_19" vType="car" speedFactor="0.89" vaporized=""/>
    <tripinfo id="WE_33" depart="33.00" departLane="1i_0" departPos="4.10" departSpeed="0.00" departDelay="0.00" arrival="111.00" arrivalLane="4o_0" arrivalPos="492.80" arrivalSpeed="11.18" duration="78.00" routeLength="995.70" waitingTime="0.00" waitingCount="0" stopTime="0.00" timeLoss="9.96" rerouteNo="0" devices="tripinfo_WE_33" vType="car" speedFactor="1.05" vaporized=""/>
    <tripinfo id="SN_15" depart="15.00" departLane="3i_0" departPos="4.10" departSpeed="0.00" departDelay="0.00" arrival="115.00" arrivalLane="2o_0" arrivalPos="492.80" arrivalSpeed="8.03" duration="100.00" routeLength="990.53" waitingTime="1.00" waitingCount="1" stopTime="0.00" timeLoss="14.81" rerouteNo="0" devices="tripinfo_SN_15" vType="car" speedFactor="0.83" vaporized=""/>
    <tripinfo id="WE_22" depart="22.00" departLane="1i_0" departPos="4.10" departSpeed="0.00" departDelay="0.00" arrival="117.00" arrivalLane="2o_0" arrivalPos="492.80" arrivalSpeed="8.69" duration="95.00" routeLength="995.90" waitingTime="0.00" waitingCount="0" stopTime="0.00" timeLoss="11.87" rerouteNo="0" devices="tripinfo_WE_22" vType="car" speedFactor="0.86" vaporized=""/>
    <tripinfo id="SN_16" depart="18.00" departLane="3i_0" departPos="4.10" departSpeed="0.00" departDelay="2.00" arrival="118.00" arrivalLane="4o_0" arrivalPos="492.80" arrivalSpeed="11.50" duration="100.00" routeLength="995.90" waitingTime="11.00" waitingCount="1" stopTime="0.00" timeLoss="31.83" rerouteNo="0" devices="tripinfo_SN_16" vType="car" speedFactor="1.05" vaporized=""/>
    <tripinfo id="EW_30" depart="30.00" departLane="4i_0" departPos="4.10" departSpeed="0.00" departDelay="0.00" arrival="126.00" arrivalLane="3o_0" arrivalPos="492.80" arrivalSpeed="11.28" duration="96.00" routeLength="995.90" waitingTime="8.00" waitingCount="1" stopTime="0.00" timeLoss="26.45" rerouteNo="0" devices="tripinfo_EW_30" vType="car" speedFactor="1.03" vaporized=""/>
    <tripinfo id="EW_21" depart="22.00" departLane="4i_0" departPos="4.10" departSpeed="0.00" departDelay="1.00" arrival="127.00" arrivalLane="2o_0" arrivalPos="492.80" arrivalSpeed="10.10" duration="105.00" routeLength="995.70" waitingTime="12.00" waitingCount="1" stopTime="0.00" timeLoss="28.89" rerouteNo="0" devices="tripinfo_EW_21" vType="car" speedFactor="0.94" vaporized=""/>
    <tripinfo id="NS_38" depart="38.00" departLane="2i_0" departPos="4.10" departSpeed="0.00" departDelay="0.00" arrival="127.00" arrivalLane="4o_0" arrivalPos="492.80" arrivalSpeed="9.22" duration="89.00" routeLength="990.53" waitingTime="0.00" waitingCount="0" stopTime="0.00" timeLoss="12.40" rerouteNo="0" devices="tripinfo_NS_38" vType="car" speedFactor="0.93" vaporized=""/>
    <tripinfo id="SN_33" depart="33.00" departLane="3i_0" departPos="4.10" departSpeed="0.00" departDelay="0.00" arrival="128.00" arrivalLane="2o_0" arrivalPos="492.80" arrivalSpeed="12.37" duration="95.00" routeLength="990.53" waitingTime="8.00" waitingCount="2" stopTime="0.00" timeLoss="32.24" rerouteNo="0" devices="tripinfo_SN_33" vType="car" speedFactor="1.12" vaporized=""/>
    <tripinfo id="NS_50" depart="50.00" departLane="2i_0" departPos="4.10" departSpeed="0.00" departDelay="0.00" arrival="138.00" arrivalLane="1o_0" arrivalPos="492.80" arrivalSpeed="9.08" duration="88.00" routeLength="995.90" waitingTime="0.00" waitingCount="0" stopTime="0.00" timeLoss="8.27" rerouteNo="0" devices="tripinfo_NS_50" vType="car" speedFactor="0.89" vaporized=""/>
    <tripinfo id="EW_38" depart="38.00" departLane="4i_0" departPos="4.10" departSpeed="0.00" departDelay="0.00" arrival="140.00" arrivalLane="1o_0" arrivalPos="492.80" arrivalSpeed="10.87" duration="102.00" routeLength="990.53" waitingTime="7.00" waitingCount="2" stopTime="0.00" timeLoss="30.54" rerouteNo="0" devices="tripinfo_EW_38" vType="car" speedFactor="0.99" vaporized=""/>
    <tripinfo id="WE_39" depart="39.00" departLane="1i_0" departPos="10.10" departSpeed="0.00" departDelay="0.00" arrival="140.00" arrivalLane="4o_0" arrivalPos="492.80" arrivalSpeed="9.93" duration="101.00" routeLength="989.70" waitingTime="5.00" waitingCount="1" stopTime="0.00" timeLoss="25.77" rerouteNo="0" devices="tripinfo_WE_39" vType="truck" speedFactor="0.94" vaporized=""/>
    <tripinfo id="EW_39" depart="41.00" departLane="4i_0" departPos="4.10" departSpeed="0.00" departDelay="2.00" arrival="142.00" arrivalLane="1o_0" arrivalPos="492.80" arrivalSpeed="10.40" duration="101.00" routeLength="990.53" waitingTime="4.00" waitingCount="1" stopTime="0.00" timeLoss="25.59" rerouteNo="0" devices="tripinfo_EW_39" vType="car" speedFactor="0.94" vaporized=""/>
    <tripinfo id="WE_47" depart="47.00" departLane="1i_0" departPos="10.10" departSpeed="0.00" departDelay="0.00" arrival="144.00" arrivalLane="2o_0" arrivalPos="492.80" arrivalSpeed="10.89" duration="97.00" routeLength="989.90" waitingTime="0.00" waitingCount="0" stopTime="0.00" timeLoss="26.60" rerouteNo="0" devices="tripinfo_WE_47" vType="truck" speedFactor="1.01" vaporized=""/>
    <tripinfo id="SN_40" depart="40.00" departLane="3i_0" departPos="4.10" departSpeed="0.00" departDelay="0.00" arrival="145.00" arrivalLane="4o_0" arrivalPos="492.80" arrivalSpeed="10.38" duration="105.00" routeLength="995.90" waitingTime="6.00" waitingCount="2" stopTime="0.00" timeLoss="28.78" rerouteNo="0" devices="tripinfo_SN_40" vType="car" speedFactor="0.94" vaporized=""/>
    <tripinfo id="WE_75" depart="75.00" departLane="1i_0" departPos="4.10" departSpeed="0.00" departDelay="0.00" arrival="147.00" arrivalLane="2o_0" arrivalPos="492.80" arrivalSpeed="12.06" duration="72.00" routeLength="995.90" waitingTime="0.00" waitingCount="0" stopTime="0.00" timeLoss="10.23" rerouteNo="0" devices="tripinfo_WE_75" vType="car" speedFactor="1.15" vaporized=""/>
    <tripinfo id="WE_48" depart="51.00" departLane="1i_0" departPos="4.10" departSpeed="0.00" departDelay="3.00" arrival="151.00" arrivalLane="4o_0" arrivalPos="492.80" arrivalSpeed="9.72" duration="100.00" routeLength="995.70" waitingTime="0.00" waitingCount="0" stopTime="0.00" timeLoss="26.91" rerouteNo="0" devices="tripinfo_WE_48" vType="car" speedFactor="0.97" vaporized=""/>
    <tripinfo id="EW_53" depart="53.00" departLane="4i_0" departPos="4.10" departSpeed="0.00" departDelay="0.00" arrival="151.00" arrivalLane="1o_0" arrivalPos="492.80" arrivalSpeed="8.40" duration="98.00" routeLength="990.53" waitingTime="0.00" waitingCount="0" stopTime="0.00" timeLoss="12.57" rerouteNo="0" devices="tripinfo_EW_53" vType="car" speedFactor="0.83" vaporized=""/>
    <tripinfo id="SN_43" depart="43.00" departLane="3i_0" departPos="4.10" departSpeed="0.00" departDelay="0.00" arrival="152.00" arrivalLane="4o_0" arrivalPos="492.80" arrivalSpeed="12.18" duration="109.00" routeLength="995.90" waitingTime="10.00" waitingCount="4" stopTime="0.00" timeLoss="47.99" rerouteNo="0" devices="tripinfo_SN_43" vType="car" speedFactor="1.16" vaporized=""/>
    <tripinfo id="SN_46" depart="46.00" departLane="3i_0" departPos="4.10" departSpeed="0.00" departDelay="0.00" arrival="156.00" arrivalLane="4o_0" arrivalPos="492.80" arrivalSpeed="11.07" duration="110.00" routeLength="995.90" waitingTime="8.00" waitingCount="4" stopTime="0.00" timeLoss="40.22" rerouteNo="0" devices="tripinfo_SN_46" vType="car" speedFactor="1.02" vaporized=""/>
    <tripinfo id="EW_54" depart="55.00" departLane="4i_0" departPos="4.10" departSpeed="0.00" departDelay="1.00" arrival="159.00" arrivalLane="3o_0" arrivalPos="492.80" arrivalSpeed="8.58" duration="104.00" routeLength="995.90" waitingTime="4.00" waitingCount="2" stopTime="0.00" timeLoss="22.91" rerouteNo="0" devices="tripinfo_EW_54" vType="car" speedFactor="0.87" vaporized=""/>
    <tripinfo id="NS_74" depart="74.00" departLane="2i_0" departPos="4.10" departSpeed="0.00" departDelay="0.00" arrival="172.00" arrivalLane="4o_0" arrivalPos="492.80" arrivalSpeed="12.74" duration="98.00" routeLength="990.53" waitingTime="24.00" waitingCount="1" stopTime="0.00" timeLoss="38.50" rerouteNo="0" devices="tripinfo_NS_74" vType="car" speedFactor="1.18" vaporized=""/>
    <tripinfo id="NS_66" depart="66.00" departLane="2i_0" departPos="4.10" departSpeed="0.00" departDelay="0.00" arrival="182.00" arrivalLane="3o_0" arrivalPos="492.80" arrivalSpeed="9.96" duration="116.00" routeLength="995.70" waitingTime="25.00" waitingCount="1" stopTime="0.00" timeLoss="40.96" rerouteNo="0" devices="tripinfo_NS_66" vType="car" speedFactor="0.95" vaporized=""/>
    <tripinfo id="NS_75" depart="77.00" departLane="2i_0" departPos="4.10" departSpeed="0.00" departDelay="2.00" arrival="184.00" arrivalLane="3o_0" arrivalPos="492.80" arrivalSpeed="10.13" duration="107.00" routeLength="995.70" waitingTime="21.00" waitingCount="1" stopTime="0.00" timeLoss="35.94" rerouteNo="0" devices="tripinfo_NS_75" vType="car" speedFactor="1.01" vaporized=""/>
    <tripinfo id="NS_101" depart="103.00" departLane="2i_0" departPos="4.10" departSpeed="0.00" departDelay="2.00" arrival="185.00" arrivalLane="3o_0" arrivalPos="492.80" arrivalSpeed="11.18" duration="82.00" routeLength="995.70" waitingTime="0.00" waitingCount="0" stopTime="0.00" timeLoss="13.72" rerouteNo="0" devices="tripinfo_NS_101" vType="car" speedFactor="1.04" vaporized=""/>
    <tripinfo id="NS_100" depart="100.00" departLane="2i_0" departPos="4.10" departSpeed="0.00" departDelay="0.00" arrival="186.00" arrivalLane="4o_0" arrivalPos="492.80" arrivalSpeed="9.55" duration="86.00" routeLength="990.53" waitingTime="0.00" waitingCount="0" stopTime="0.00" timeLoss="12.64" rerouteNo="0" devices="tripinfo_NS_100" vType="car" speedFactor="0.96" vaporized=""/>
    <tripinfo id="WE_86" depart="86.00" departLane="1i_0" departPos="4.10" departSpeed="0.00" departDelay="0.00" arrival="188.00" arrivalLane="4o_0" arrivalPos="492.80" arrivalSpeed="12.66" duration="102.00" routeLength="995.70" waitingTime="21.00" waitingCount="1" stopTime="0.00" timeLoss="41.27" rerouteNo="0" devices="tripinfo_WE_86" vType="car" speedFactor="1.17" vaporized=""/>
    <tripinfo id="SN_55" depart="55.00" departLane="3i_0" departPos="4.10" departSpeed="0.00" departDelay="0.00" arrival="192.00" arrivalLane="2o_0" arrivalPos="492.80" arrivalSpeed="10.16" duration="137.00" routeLength="990.53" waitingTime="29.00" waitingCount="3" stopTime="0.00" timeLoss="59.78" rerouteNo="0" devices="tripinfo_SN_55" vType="car" speedFactor="0.92" vaporized=""/>
    <tripinfo id="SN_69" depart="69.00" departLane="3i_0" departPos="4.10" departSpeed="0.00" departDelay="0.00" arrival="194.00" arrivalLane="2o_0" arrivalPos="492.80" arrivalSpeed="11.36" duration="125.00" routeLength="990.53" waitingTime="26.00" waitingCount="1" stopTime="0.00" timeLoss="62.06" rerouteNo="0" devices="tripinfo_SN_69" vType="car" speedFactor="1.13" vaporized=""/>
    <tripinfo id="WE_95" depart="95.00" departLane="1i_0" departPos="4.10" departSpeed="0.00" departDelay="0.00" arrival="194.00" arrivalLane="3o_0" arrivalPos="492.80" arrivalSpeed="9.62" duration="99.00" routeLength="990.53" waitingTime="11.00" waitingCount="2" stopTime="0.00" timeLoss="26.82" rerouteNo="0" devices="tripinfo_WE_95" vType="car" speedFactor="0.97" vaporized=""/>
    <tripinfo id="SN_99" depart="99.00" departLane="3i_0" departPos="4.10" departSpeed="0.00" departDelay="0.00" arrival="195.00" arrivalLane="1o_0" arrivalPos="492.80" arrivalSpeed="10.52" duration="96.00" routeLength="995.70" waitingTime="8.00" waitingCount="1" stopTime="0.00" timeLoss="26.68" rerouteNo="0" devices="tripinfo_SN_99" vType="car" speedFactor="1.03" vaporized=""/>
    <tripinfo id="EW_74" depart="74.00" departLane="4i_0" departPos="4.10" departSpeed="0.00" departDelay="0.00" arrival="196.00" arrivalLane="2o_0" arrivalPos="492.80" arrivalSpeed="9.37" duration="122.00" routeLength="995.70" waitingTime="30.00" waitingCount="2" stopTime="0.00" timeLoss="45.96" rerouteNo="0" devices="tripinfo_EW_74" vType="car" speedFactor="0.93" vaporized=""/>
    <tripinfo id="EW_86" depart="86.00" departLane="4i_0" departPos="4.10" departSpeed="0.00" departDelay="0.00" arrival="198.00" arrivalLane="2o_0" arrivalPos="492.80" arrivalSpeed="10.55" duration="112.00" routeLength="995.70" waitingTime="20.00" waitingCount="2" stopTime="0.00" timeLoss="40.50" rerouteNo="0" devices="tripinfo_EW_86" vType="car" speedFactor="0.99" vaporized=""/>
    <tripinfo id="WE_98" depart="98.00" departLane="1i_0" departPos="4.10" departSpeed="0.00" departDelay="0.00" arrival="200.00" arrivalLane="2o_0" arrivalPos="492.80" arrivalSpeed="12.18" duration="102.00" routeLength="995.90" waitingTime="11.00" waitingCount="2" stopTime="0.00" timeLoss="41.31" rerouteNo="0" devices="tripinfo_WE_98" vType="car" speedFactor="1.18" vaporized=""/>
    <tripinfo id="SN_100" depart="102.00" departLane="3i_0" departPos="4.10" departSpeed="0.00" departDelay="2.00" arrival="202.00" arrivalLane="4o_0" arrivalPos="492.80" arrivalSpeed="10.87" duration="100.00" routeLength="995.90" waitingTime="9.00" waitingCount="2" stopTime="0.00" timeLoss="35.21" rerouteNo="0" devices="tripinfo_SN_100" vType="car" speedFactor="1.09" vaporized=""/>
    <tripinfo id="WE_104" depart="104.00" departLane="1i_0" departPos="4.10" departSpeed="0.00" departDelay="0.00" arrival="202.00" arrivalLane="2o_0" arrivalPos="492.80" arrivalSpeed="11.32" duration="98.00" routeLength="995.90" waitingTime="6.00" waitingCount="1" stopTime="0.00" timeLoss="32.14" rerouteNo="0" devices="tripinfo_WE_104" vType="car" speedFactor="1.09" vaporized=""/>
    <tripinfo id="NS_117" depart="117.00" departLane="2i_0" departPos="10.10" departSpeed="0.00" departDelay="0.00" arrival="204.00" arrivalLane="1o_0" arrivalPos="492.80" arrivalSpeed="10.17" duration="87.00" routeLength="989.90" waitingTime="0.00" waitingCount="0" stopTime="0.00" timeLoss="11.34" rerouteNo="0" devices="tripinfo_NS_117" vType="truck" speedFactor="0.94" vaporized=""/>
    <tripinfo id="EW_92" depart="92.00" departLane="4i_0" departPos="4.10" departSpeed="0.00" departDelay="0.00" arrival="205.00" arrivalLane="3o_0" arrivalPos="492.80" arrivalSpeed="11.29" duration="113.00" routeLength="995.90" waitingTime="20.00" waitingCount="2" stopTime="0.00" timeLoss="43.57" rerouteNo="0" devices="tripinfo_EW_92" vType="car" speedFactor="1.02" vaporized=""/>
    <tripinfo id="EW_98" depart="98.00" departLane="4i_0" departPos="4.10" departSpeed="0.00" departDelay="0.00" arrival="211.00" arrivalLane="1o_0" arrivalPos="492.80" arrivalSpeed="11.68" duration="113.00" routeLength="990.53" waitingTime="20.00" waitingCount="3" stopTime="0.00" timeLoss="48.73" rerouteNo="0" devices="tripinfo_EW_98" vType="car" speedFactor="1.10" vaporized=""/>
    <tripinfo id="SN_103" depart="105.00" departLane="3i_0" departPos="4.10" departSpeed="0.00" departDelay="2.00" arrival="213.00" arrivalLane="2o_0" arrivalPos="492.80" arrivalSpeed="11.28" duration="108.00" routeLength="990.53" waitingTime="10.00" waitingCount="3" stopTime="0.00" timeLoss="40.62" rerouteNo="0" devices="tripinfo_SN_103" vType="car" speedFactor="1.04" vaporized=""/>
    <tripinfo id="NS_124" depart="124.00" departLane="2i_0" departPos="4.10" departSpeed="0.00" departDelay="0.00" arrival="218.00" arrivalLane="3o_0" arrivalPos="492.80" arrivalSpeed="9.34" duration="94.00" routeLength="995.70" waitingTime="0.00" waitingCount="0" stopTime="0.00" timeLoss="10.74" rerouteNo="0" devices="tripinfo_NS_124" vType="car" speedFactor="0.85" vaporized=""/>
    <tripinfo id="SN_105" depart="107.00" departLane="3i_0" departPos="4.10" departSpeed="0.00" departDelay="2.00" arrival="219.00" arrivalLane="2o_0" arrivalPos="492.80" arrivalSpeed="10.72" duration="112.00" routeLength="990.53" waitingTime="8.00" waitingCount="3" stopTime="0.00" timeLoss="41.47" rerouteNo="0" devices="tripinfo_SN_105" vType="car" speedFactor="1.00" vaporized=""/>
    <tripinfo id="WE_131" depart="131.00" departLane="1i_0" departPos="10.10" departSpeed="0.00" departDelay="0.00" arrival="221.00" arrivalLane="3o_0" arrivalPos="492.80" arrivalSpeed="10.78" duration="90.00" routeLength="984.53" waitingTime="0.00" waitingCount="0" stopTime="0.00" timeLoss="19.94" rerouteNo="0" devices="tripinfo_WE_131" vType="truck" speedFactor="1.01" vaporized=""/>
    <tripinfo id="WE_133" depart="135.00" departLane="1i_0" departPos="4.10" departSpeed="0.00" departDelay="2.00" arrival="221.00" arrivalLane="2o_0" arrivalPos="492.80" arrivalSpeed="11.58" duration="86.00" routeLength="995.90" waitingTime="0.00" waitingCount="0" stopTime="0.00" timeLoss="21.31" rerouteNo="0" devices="tripinfo_WE_133" vType="car" speedFactor="1.10" vaporized=""/>
    <tripinfo id="WE_140" depart="142.00" departLane="1i_0" departPos="4.10" departSpeed="0.00" departDelay="2.00" arrival="230.00" arrivalLane="3o_0" arrivalPos="492.80" arrivalSpeed="9.33" duration="88.00" routeLength="990.53" waitingTime="0.00" waitingCount="0" stopTime="0.00" timeLoss="8.85" rerouteNo="0" devices="tripinfo_WE_140" vType="car" speedFactor="0.90" vaporized=""/>
    <tripinfo id="NS_156" depart="156.00" departLane="2i_0" departPos="4.10" departSpeed="0.00" departDelay="0.00" arrival="230.00" arrivalLane="4o_0" arrivalPos="492.80" arrivalSpeed="11.55" duration="74.00" routeLength="990.53" waitingTime="0.00" waitingCount="0" stopTime="0.00" timeLoss="10.49" rerouteNo="0" devices="tripinfo_NS_156" vType="car" speedFactor="1.12" vaporized=""/>
    <tripinfo id="WE_141" depart="145.00" departLane="1i_0" departPos="4.10" departSpeed="0.00" departDelay="4.00" arrival="231.00" arrivalLane="3o_0" arrivalPos="492.80" arrivalSpeed="11.49" duration="86.00" routeLength="990.53" waitingTime="0.00" waitingCount="0" stopTime="0.00" timeLoss="24.32" rerouteNo="0" devices="tripinfo_WE_141" vType="car" speedFactor="1.14" vaporized=""/>
    <tripinfo id="NS_139" depart="139.00" departLane="2i_0" departPos="10.10" departSpeed="0.00" departDelay="0.00" arrival="233.00" arrivalLane="1o_0" arrivalPos="492.80" arrivalSpeed="10.94" duration="94.00" routeLength="989.90" waitingTime="1.00" waitingCount="1" stopTime="0.00" timeLoss="23.33" rerouteNo="0" devices="tripinfo_NS_139" vType="truck" speedFactor="1.00" vaporized=""/>
    <tripinfo id="SN_115" depart="115.00" departLane="3i_0" departPos="4.10" departSpeed="0.00" departDelay="0.00" arrival="235.00" arrivalLane="2o_0" arrivalPos="492.80" arrivalSpeed="9.86" duration="120.00" routeLength="990.53" waitingTime="12.00" waitingCount="3" stopTime="0.00" timeLoss="41.91" rerouteNo="0" devices="tripinfo_SN_115" vType="car" speedFactor="0.90" vaporized=""/>
    <tripinfo id="NS_128" depart="128.00" departLane="2i_0" departPos="4.10" departSpeed="0.00" departDelay="0.00" arrival="238.00" arrivalLane="3o_0" arrivalPos="492.80" arrivalSpeed="8.22" duration="110.00" routeLength="995.70" waitingTime="14.00" waitingCount="1" stopTime="0.00" timeLoss="27.24" rerouteNo="0" devices="tripinfo_NS_128" vType="car" speedFactor="0.85" vaporized=""/>
    <tripinfo id="SN_139" depart="139.00" departLane="3i_0" departPos="4.10" departSpeed="0.00" departDelay="0.00" arrival="242.00" arrivalLane="1o_0" arrivalPos="492.80" arrivalSpeed="10.18" duration="103.00" routeLength="995.70" waitingTime="7.00" waitingCount="2" stopTime="0.00" timeLoss="31.80" rerouteNo="0" devices="tripinfo_SN_139" vType="car" speedFactor="1.00" vaporized=""/>
    <tripinfo id="EW_99" depart="101.00" departLane="4i_0" departPos="4.10" departSpeed="0.00" departDelay="2.00" arrival="244.00" arrivalLane="3o_0" arrivalPos="492.80" arrivalSpeed="10.00" duration="143.00" routeLength="995.90" waitingTime="31.00" waitingCount="5" stopTime="0.00" timeLoss="63.81" rerouteNo="0" devices="tripinfo_EW_99" vType="car" speedFactor="0.90" vaporized=""/>
    <tripinfo id="NS_161" depart="161.00" departLane="2i_0" departPos="4.10" departSpeed="0.00" departDelay="0.00" arrival="244.00" arrivalLane="1o_0" arrivalPos="492.80" arrivalSpeed="10.83" duration="83.00" routeLength="995.90" waitingTime="0.00" waitingCount="0" stopTime="0.00" timeLoss="12.99" rerouteNo="0" devices="tripinfo_NS_161" vType="car" speedFactor="1.02" vaporized=""/>
    <tripinfo id="EW_130" depart="130.00" departLane="4i_0" departPos="4.10" departSpeed="0.00" departDelay="0.00" arrival="245.00" arrivalLane="3o_0" arrivalPos="492.80" arrivalSpeed="12.05" duration="115.00" routeLength="995.90" waitingTime="24.00" waitingCount="4" stopTime="0.00" timeLoss="54.35" rerouteNo="0" devices="tripinfo_EW_130" vType="car" speedFactor="1.17" vaporized=""/>
    <tripinfo id="NS_164" depart="164.00" departLane="2i_0" departPos="4.10" departSpeed="0.00" departDelay="0.00" arrival="246.00" arrivalLane="1o_0" arrivalPos="492.80" arrivalSpeed="10.35" duration="82.00" routeLength="995.90" waitingTime="0.00" waitingCount="0" stopTime="0.00" timeLoss="10.29" rerouteNo="0" devices="tripinfo_NS_164" vType="car" speedFactor="0.99" vaporized=""/>
    <tripinfo id="SN_144" depart="144.00" departLane="3i_0" departPos="4.10" departSpeed="0.00" departDelay="0.00" arrival="250.00" arrivalLane="1o_0" arrivalPos="492.80" arrivalSpeed="10.15" duration="106.00" routeLength="995.70" waitingTime="10.00" waitingCount="4" stopTime="0.00" timeLoss="36.81" rerouteNo="0" devices="tripinfo_SN_144" vType="car" speedFactor="1.02" vaporized=""/>
    <tripinfo id="WE_155" depart="155.00" departLane="1i_0" departPos="4.10" departSpeed="0.00" departDelay="0.00" arrival="254.00" arrivalLane="4o_0" arrivalPos="492.80" arrivalSpeed="10.22" duration="99.00" routeLength="995.70" waitingTime="9.00" waitingCount="2" stopTime="0.00" timeLoss="25.45" rerouteNo="0" devices="tripinfo_WE_155" vType="car" speedFactor="0.97" vaporized=""/>
    <tripinfo id="WE_165" depart="165.00" departLane="1i_0" departPos="4.10" departSpeed="0.00" departDelay="0.00" arrival="256.00" arrivalLane="3o_0" arrivalPos="492.80" arrivalSpeed="9.97" duration="91.00" routeLength="990.53" waitingTime="1.00" waitingCount="1" stopTime="0.00" timeLoss="16.10" rerouteNo="0" devices="tripinfo_WE_165" vType="car" speedFactor="0.94" vaporized=""/>
    <tripinfo id="WE_173" depart="175.00" departLane="1i_0" departPos="4.10" departSpeed="0.00" departDelay="2.00" arrival="257.00" arrivalLane="2o_0" arrivalPos="492.80" arrivalSpeed="11.13" duration="82.00" routeLength="995.90" waitingTime="0.00" waitingCount="0" stopTime="0.00" timeLoss="12.35" rerouteNo="0" devices="tripinfo_WE_173" vType="car" speedFactor="1.02" vaporized=""/>
    <tripinfo id="WE_172" depart="172.00" departLane="1i_0" departPos="4.10" departSpeed="0.00" departDelay="0.00" arrival="258.00" arrivalLane="3o_0" arrivalPos="492.80" arrivalSpeed="10.62" duration="86.00" routeLength="990.53" waitingTime="0.00" waitingCount="0" stopTime="0.00" timeLoss="18.14" rerouteNo="0" devices="tripinfo_WE_172" vType="car" speedFactor="1.04" vaporized=""/>
    <tripinfo id="NS_185" depart="185.00" departLane="2i_0" departPos="4.10" departSpeed="0.00" departDelay="0.00" arrival="264.00" arrivalLane="3o_0" arrivalPos="492.80" arrivalSpeed="10.73" duration="79.00" routeLength="995.70" waitingTime="0.00" waitingCount="0" stopTime="0.00" timeLoss="10.49" rerouteNo="0" devices="tripinfo_NS_185" vType="car" speedFactor="1.03" vaporized=""/>
    <tripinfo id="WE_181" depart="181.00" departLane="1i_0" departPos="4.10" departSpeed="0.00" departDelay="0.00" arrival="265.00" arrivalLane="2o_0" arrivalPos="492.80" arrivalSpeed="10.39" duration="84.00" routeLength="995.90" waitingTime="0.00" waitingCount="0" stopTime="0.00" timeLoss="8.26" rerouteNo="0" devices="tripinfo_WE_181" vType="car" speedFactor="0.94" vaporized=""/>
    <tripinfo id="WE_187" depart="187.00" departLane="1i_0" departPos="4.10" departSpeed="0.00" departDelay="0.00" arrival="269.00" arrivalLane="4o_0" arrivalPos="492.80" arrivalSpeed="10.43" duration="82.00" routeLength="995.70" waitingTime="0.00" waitingCount="0" stopTime="0.00" timeLoss="9.55" rerouteNo="0" devices="tripinfo_WE_187" vType="car" speedFactor="0.98" vaporized=""/>
    <tripinfo id="NS_194" depart="196.00" departLane="2i_0" departPos="4.10" departSpeed="0.00" departDelay="2.00" arrival="271.00" arrivalLane="4o_0" arrivalPos="492.80" arrivalSpeed="11.07" duration="75.00" routeLength="990.53" waitingTime="0.00" waitingCount="0" stopTime="0.00" timeLoss="9.74" rerouteNo="0" devices="tripinfo_NS_194" vType="car" speedFactor="1.09" vaporized=""/>
    <tripinfo id="NS_192" depart="192.00" departLane="2i_0" departPos="4.10" departSpeed="0.00" departDelay="0.00" arrival="273.00" arrivalLane="3o_0" arrivalPos="492.80" arrivalSpeed="10.29" duration="81.00" routeLength="995.70" waitingTime="0.00" waitingCount="0" stopTime="0.00" timeLoss="10.26" rerouteNo="0" devices="tripinfo_NS_192" vType="car" speedFactor="1.01" vaporized=""/>
    <tripinfo id="NS_195" depart="202.00" departLane="2i_0" departPos="4.10" departSpeed="0.00" departDelay="7.00" arrival="279.00" arrivalLane="1o_0" arrivalPos="492.80" arrivalSpeed="10.53" duration="77.00" routeLength="995.90" waitingTime="0.00" waitingCount="0" stopTime="0.00" timeLoss="8.20" rerouteNo="0" devices="tripinfo_NS_195" vType="car" speedFactor="1.03" vaporized=""/>
    <tripinfo id="NS_204" depart="205.00" departLane="2i_0" departPos="4.10" departSpeed="0.00" departDelay="1.00" arrival="283.00" arrivalLane="4o_0" arrivalPos="492.80" arrivalSpeed="11.27" duration="78.00" routeLength="990.53" waitingTime="0.00" waitingCount="0" stopTime="0.00" timeLoss="8.79" rerouteNo="0" devices="tripinfo_NS_204" vType="car" speedFactor="1.02" vaporized=""/>
    <tripinfo id="NS_211" depart="211.00" departLane="2i_0" departPos="4.10" departSpeed="0.00" departDelay="0.00" arrival="292.00" arrivalLane="1o_0" arrivalPos="492.80" arrivalSpeed="9.83" duration="81.00" routeLength="995.90" waitingTime="0.00" waitingCount="0" stopTime="0.00" timeLoss="8.06" rerouteNo="0" devices="tripinfo_NS_211" vType="car" speedFactor="0.98" vaporized=""/>
    <tripinfo id="NS_216" depart="216.00" departLane="2i_0" departPos="4.10" departSpeed="0.00" departDelay="0.00" arrival="295.00" arrivalLane="1o_0" arrivalPos="492.80" arrivalSpeed="10.01" duration="79.00" routeLength="995.90" waitingTime="0.00" waitingCount="0" stopTime="0.00" timeLoss="8.09" rerouteNo="0" devices="tripinfo_NS_216" vType="car" speedFactor="1.00" vaporized=""/>
    <tripinfo id="NS_218" depart="219.00" departLane="2i_0" departPos="4.10" departSpeed="0.00" departDelay="1.00" arrival="298.00" arrivalLane="4o_0" arrivalPos="492.80" arrivalSpeed="10.64" duration="79.00" routeLength="990.53" waitingTime="0.00" waitingCount="0" stopTime="0.00" timeLoss="8.84" rerouteNo="0" devices="tripinfo_NS_218" vType="car" speedFactor="1.01" vaporized=""/>