<?xml version="1.0" encoding="UTF-8"?>

<!-- generated on 2024-05-05 23:13:04 by Eclipse SUMO sumo Version 1.19.0
<configuration xmlns:xsi="http://www.w3.org/2001/XMLSchema-instance" xsi:noNamespaceSchemaLocation="http://sumo.dlr.de/xsd/sumoConfiguration.xsd">

    <input>
        <net-file value="twoone.net.xml"/>
        <route-files value="route_gen.rou.xml"/>
    </input>

    <output>
        <tripinfo-output value="tripinfo_epi491.xml"/>
    </output>

    <report>
        <no-warnings value="true"/>
    </report>

    <traci_server>
        <remote-port value="39433"/>
    </traci_server>

</configuration>
-->

<tripinfos xmlns:xsi="http://www.w3.org/2001/XMLSchema-instance" xsi:noNamespaceSchemaLocation="http://sumo.dlr.de/xsd/tripinfo_file.xsd">
    <tripinfo id="NS_7" depart="9.00" departLane="2i_0" departPos="4.10" departSpeed="0.00" departDelay="2.00" arrival="90.00" arrivalLane="1o_0" arrivalPos="492.80" arrivalSpeed="10.10" duration="81.00" routeLength="995.90" waitingTime="0.00" waitingCount="0" stopTime="0.00" timeLoss="10.64" rerouteNo="0" devices="tripinfo_NS_7" vType="car" speedFactor="1.01" vaporized=""/>
    <tripinfo id="NS_6" depart="6.00" departLane="2i_0" departPos="4.10" departSpeed="0.00" departDelay="0.00" arrival="91.00" arrivalLane="3o_0" arrivalPos="492.80" arrivalSpeed="10.19" duration="85.00" routeLength="995.70" waitingTime="0.00" waitingCount="0" stopTime="0.00" timeLoss="9.28" rerouteNo="0" devices="tripinfo_NS_6" vType="car" speedFactor="0.94" vaporized=""/>
    <tripinfo id="SN_15" depart="15.00" departLane="3i_0" departPos="4.10" departSpeed="0.00" departDelay="0.00" arrival="93.00" arrivalLane="2o_0" arrivalPos="492.80" arrivalSpeed="11.85" duration="78.00" routeLength="990.53" waitingTime="1.00" waitingCount="1" stopTime="0.00" timeLoss="12.97" rerouteNo="0" devices="tripinfo_SN_15" vType="car" speedFactor="1.08" vaporized=""/>
    <tripinfo id="EW_6" depart="6.00" departLane="4i_0" departPos="4.10" departSpeed="0.00" departDelay="0.00" arrival="96.00" arrivalLane="1o_0" arrivalPos="492.80" arrivalSpeed="10.87" duration="90.00" routeLength="990.53" waitingTime="9.00" waitingCount="1" stopTime="0.00" timeLoss="23.11" rerouteNo="0" devices="tripinfo_EW_6" vType="car" speedFactor="1.06" vaporized=""/>
    <tripinfo id="WE_23" depart="23.00" departLane="1i_0" departPos="4.10" departSpeed="0.00" departDelay="0.00" arrival="98.00" arrivalLane="3o_0" arrivalPos="492.80" arrivalSpeed="10.61" duration="75.00" routeLength="990.53" waitingTime="0.00" waitingCount="0" stopTime="0.00" timeLoss="7.21" rerouteNo="0" devices="tripinfo_WE_23" vType="car" speedFactor="1.05" vaporized=""/>
    <tripinfo id="WE_34" depart="34.00" departLane="1i_0" departPos="4.10" departSpeed="0.00" departDelay="0.00" arrival="105.00" arrivalLane="2o_0" arrivalPos="492.80" arrivalSpeed="11.43" duration="71.00" routeLength="995.90" waitingTime="0.00" waitingCount="0" stopTime="0.00" timeLoss="7.91" rerouteNo="0" devices="tripinfo_WE_34" vType="car" speedFactor="1.12" vaporized=""/>
    <tripinfo id="WE_35" depart="37.00" departLane="1i_0" departPos="4.10" departSpeed="0.00" departDelay="2.00" arrival="116.00" arrivalLane="3o_0" arrivalPos="492.80" arrivalSpeed="10.23" duration="79.00" routeLength="990.53" waitingTime="0.00" waitingCount="0" stopTime="0.00" timeLoss="7.69" rerouteNo="0" devices="tripinfo_WE_35" vType="car" speedFactor="0.99" vaporized=""/>
    <tripinfo id="NS_28" depart="28.00" departLane="2i_0" departPos="4.10" departSpeed="0.00" departDelay="0.00" arrival="119.00" arrivalLane="4o_0" arrivalPos="492.80" arrivalSpeed="9.15" duration="91.00" routeLength="990.53" waitingTime="0.00" waitingCount="0" stopTime="0.00" timeLoss="9.02" rerouteNo="0" devices="tripinfo_NS_28" vType="car" speedFactor="0.86" vaporized=""/>
    <tripinfo id="NS_29" depart="31.00" departLane="2i_0" departPos="4.10" departSpeed="0.00" departDelay="2.00" arrival="121.00" arrivalLane="4o_0" arrivalPos="492.80" arrivalSpeed="12.06" duration="90.00" routeLength="990.53" waitingTime="0.00" waitingCount="0" stopTime="0.00" timeLoss="24.82" rerouteNo="0" devices="tripinfo_NS_29" vType="car" speedFactor="1.09" vaporized=""/>
    <tripinfo id="WE_38" depart="40.00" departLane="1i_0" departPos="4.10" departSpeed="0.00" departDelay="2.00" arrival="125.00" arrivalLane="3o_0" arrivalPos="492.80" arrivalSpeed="9.01" duration="85.00" routeLength="990.53" waitingTime="0.00" waitingCount="0" stopTime="0.00" timeLoss="8.26" rerouteNo="0" devices="tripinfo_WE_38" vType="car" speedFactor="0.93" vaporized=""/>
    <tripinfo id="NS_33" depart="34.00" departLane="2i_0" departPos="4.10" departSpeed="0.00" departDelay="1.00" arrival="126.00" arrivalLane="3o_0" arrivalPos="492.80" arrivalSpeed="10.48" duration="92.00" routeLength="995.70" waitingTime="4.00" waitingCount="1" stopTime="0.00" timeLoss="24.53" rerouteNo="0" devices="tripinfo_NS_33" vType="car" speedFactor="1.05" vaporized=""/>
    <tripinfo id="WE_42" depart="44.00" departLane="1i_0" departPos="10.10" departSpeed="0.00" departDelay="2.00" arrival="129.00" arrivalLane="3o_0" arrivalPos="492.80" arrivalSpeed="10.32" duration="85.00" routeLength="984.53" waitingTime="0.00" waitingCount="0" stopTime="0.00" timeLoss="12.60" rerouteNo="0" devices="tripinfo_WE_42" vType="truck" speedFactor="0.97" vaporized=""/>
    <tripinfo id="SN_24" depart="24.00" departLane="3i_0" departPos="4.10" departSpeed="0.00" departDelay="0.00" arrival="133.00" arrivalLane="4o_0" arrivalPos="492.80" arrivalSpeed="9.61" duration="109.00" routeLength="995.90" waitingTime="13.00" waitingCount="1" stopTime="0.00" timeLoss="29.23" rerouteNo="0" devices="tripinfo_SN_24" vType="car" speedFactor="0.89" vaporized=""/>
    <tripinfo id="WE_43" depart="48.00" departLane="1i_0" departPos="4.10" departSpeed="0.00" departDelay="5.00" arrival="135.00" arrivalLane="2o_0" arrivalPos="492.80" arrivalSpeed="9.81" duration="87.00" routeLength="995.90" waitingTime="0.00" waitingCount="0" stopTime="0.00" timeLoss="11.44" rerouteNo="0" devices="tripinfo_WE_43" vType="car" speedFactor="0.94" vaporized=""/>
    <tripinfo id="WE_56" depart="56.00" departLane="1i_0" departPos="4.10" departSpeed="0.00" departDelay="0.00" arrival="137.00" arrivalLane="2o_0" arrivalPos="492.80" arrivalSpeed="9.67" duration="81.00" routeLength="995.90" waitingTime="0.00" waitingCount="0" stopTime="0.00" timeLoss="8.21" rerouteNo="0" devices="tripinfo_WE_56" vType="car" speedFactor="0.97" vaporized=""/>
    <tripinfo id="NS_56" depart="56.00" departLane="2i_0" departPos="4.10" departSpeed="0.00" departDelay="0.00" arrival="144.00" arrivalLane="4o_0" arrivalPos="492.80" arrivalSpeed="9.43" duration="88.00" routeLength="990.53" waitingTime="0.00" waitingCount="0" stopTime="0.00" timeLoss="8.35" rerouteNo="0" devices="tripinfo_NS_56" vType="car" speedFactor="0.89" vaporized=""/>
    <tripinfo id="WE_72" depart="72.00" departLane="1i_0" departPos="4.10" departSpeed="0.00" departDelay="0.00" arrival="146.00" arrivalLane="2o_0" arrivalPos="492.80" arrivalSpeed="12.56" duration="74.00" routeLength="995.90" waitingTime="1.00" waitingCount="1" stopTime="0.00" timeLoss="13.23" rerouteNo="0" devices="tripinfo_WE_72" vType="car" speedFactor="1.18" vaporized=""/>
    <tripinfo id="WE_59" depart="59.00" departLane="1i_0" departPos="4.10" departSpeed="0.00" departDelay="0.00" arrival="149.00" arrivalLane="3o_0" arrivalPos="492.80" arrivalSpeed="9.39" duration="90.00" routeLength="990.53" waitingTime="0.00" waitingCount="0" stopTime="0.00" timeLoss="9.10" rerouteNo="0" devices="tripinfo_WE_59" vType="car" speedFactor="0.87" vaporized=""/>
    <tripinfo id="WE_62" depart="62.00" departLane="1i_0" departPos="4.10" departSpeed="0.00" departDelay="0.00" arrival="154.00" arrivalLane="4o_0" arrivalPos="492.80" arrivalSpeed="9.32" duration="92.00" routeLength="995.70" waitingTime="1.00" waitingCount="1" stopTime="0.00" timeLoss="14.63" rerouteNo="0" devices="tripinfo_WE_62" vType="car" speedFactor="0.92" vaporized=""/>
    <tripinfo id="NS_58" depart="59.00" departLane="2i_0" departPos="4.10" departSpeed="0.00" departDelay="1.00" arrival="156.00" arrivalLane="3o_0" arrivalPos="492.80" arrivalSpeed="8.00" duration="97.00" routeLength="995.70" waitingTime="0.00" waitingCount="0" stopTime="0.00" timeLoss="10.94" rerouteNo="0" devices="tripinfo_NS_58" vType="car" speedFactor="0.83" vaporized=""/>
    <tripinfo id="WE_70" depart="70.00" departLane="1i_0" departPos="4.10" departSpeed="0.00" departDelay="0.00" arrival="156.00" arrivalLane="4o_0" arrivalPos="492.80" arrivalSpeed="9.77" duration="86.00" routeLength="995.70" waitingTime="0.00" waitingCount="0" stopTime="0.00" timeLoss="10.04" rerouteNo="0" devices="tripinfo_WE_70" vType="car" speedFactor="0.93" vaporized=""/>
    <tripinfo id="NS_65" depart="65.00" departLane="2i_0" departPos="4.10" departSpeed="0.00" departDelay="0.00" arrival="158.00" arrivalLane="3o_0" arrivalPos="492.80" arrivalSpeed="11.34" duration="93.00" routeLength="995.70" waitingTime="0.00" waitingCount="0" stopTime="0.00" timeLoss="29.71" rerouteNo="0" devices="tripinfo_NS_65" vType="car" speedFactor="1.13" vaporized=""/>
    <tripinfo id="WE_76" depart="79.00" departLane="1i_0" departPos="4.10" departSpeed="0.00" departDelay="3.00" arrival="158.00" arrivalLane="2o_0" arrivalPos="492.80" arrivalSpeed="10.45" duration="79.00" routeLength="995.90" waitingTime="0.00" waitingCount="0" stopTime="0.00" timeLoss="7.87" rerouteNo="0" devices="tripinfo_WE_76" vType="car" speedFactor="0.99" vaporized=""/>
    <tripinfo id="WE_74" depart="75.00" departLane="1i_0" departPos="4.10" departSpeed="0.00" departDelay="1.00" arrival="159.00" arrivalLane="3o_0" arrivalPos="492.80" arrivalSpeed="10.08" duration="84.00" routeLength="990.53" waitingTime="1.00" waitingCount="1" stopTime="0.00" timeLoss="13.78" rerouteNo="0" devices="tripinfo_WE_74" vType="car" speedFactor="1.01" vaporized=""/>
    <tripinfo id="WE_83" depart="83.00" departLane="1i_0" departPos="10.10" departSpeed="0.00" departDelay="0.00" arrival="164.00" arrivalLane="3o_0" arrivalPos="492.80" arrivalSpeed="11.21" duration="81.00" routeLength="984.53" waitingTime="0.00" waitingCount="0" stopTime="0.00" timeLoss="10.98" rerouteNo="0" devices="tripinfo_WE_83" vType="truck" speedFactor="1.01" vaporized=""/>
    <tripinfo id="WE_93" depart="93.00" departLane="1i_0" departPos="4.10" departSpeed="0.00" departDelay="0.00" arrival="166.00" arrivalLane="2o_0" arrivalPos="492.80" arrivalSpeed="12.12" duration="73.00" routeLength="995.90" waitingTime="0.00" waitingCount="0" stopTime="0.00" timeLoss="8.09" rerouteNo="0" devices="tripinfo_WE_93" vType="car" speedFactor="1.10" vaporized=""/>
    <tripinfo id="WE_86" depart="87.00" departLane="1i_0" departPos="4.10" departSpeed="0.00" departDelay="1.00" arrival="170.00" arrivalLane="3o_0" arrivalPos="492.80" arrivalSpeed="10.01" duration="83.00" routeLength="990.53" waitingTime="0.00" waitingCount="0" stopTime="0.00" timeLoss="9.94" rerouteNo="0" devices="tripinfo_WE_86" vType="car" speedFactor="0.97" vaporized=""/>
    <tripinfo id="NS_96" depart="96.00" departLane="2i_0" departPos="4.10" departSpeed="0.00" departDelay="0.00" arrival="178.00" arrivalLane="1o_0" arrivalPos="492.80" arrivalSpeed="10.22" duration="82.00" routeLength="995.90" waitingTime="0.00" waitingCount="0" stopTime="0.00" timeLoss="8.07" rerouteNo="0" devices="tripinfo_NS_96" vType="car" speedFactor="0.96" vaporized=""/>
    <tripinfo id="WE_96" depart="96.00" departLane="1i_0" departPos="4.10" departSpeed="0.00" departDelay="0.00" arrival="179.00" arrivalLane="4o_0" arrivalPos="492.80" arrivalSpeed="10.34" duration="83.00" routeLength="995.70" waitingTime="0.00" waitingCount="0" stopTime="0.00" timeLoss="13.65" rerouteNo="0" devices="tripinfo_WE_96" vType="car" speedFactor="1.03" vaporized=""/>
    <tripinfo id="WE_106" depart="106.00" departLane="1i_0" departPos="4.10" departSpeed="0.00" departDelay="0.00" arrival="179.00" arrivalLane="3o_0" arrivalPos="492.80" arrivalSpeed="11.13" duration="73.00" routeLength="990.53" waitingTime="0.00" waitingCount="0" stopTime="0.00" timeLoss="7.87" rerouteNo="0" devices="tripinfo_WE_106" vType="car" speedFactor="1.09" vaporized=""/>
    <tripinfo id="NS_106" depart="106.00" departLane="2i_0" departPos="4.10" departSpeed="0.00" departDelay="0.00" arrival="187.00" arrivalLane="3o_0" arrivalPos="492.80" arrivalSpeed="10.63" duration="81.00" routeLength="995.70" waitingTime="0.00" waitingCount="0" stopTime="0.00" timeLoss="9.95" rerouteNo="0" devices="tripinfo_NS_106" vType="car" speedFactor="1.00" vaporized=""/>
    <tripinfo id="WE_108" depart="108.00" departLane="1i_0" departPos="4.10" departSpeed="0.00" departDelay="0.00" arrival="196.00" arrivalLane="3o_0" arrivalPos="492.80" arrivalSpeed="9.90" duration="88.00" routeLength="990.53" waitingTime="0.00" waitingCount="0" stopTime="0.00" timeLoss="9.21" rerouteNo="0" devices="tripinfo_WE_108" vType="car" speedFactor="0.90" vaporized=""/>
    <tripinfo id="NS_111" depart="111.00" departLane="2i_0" departPos="4.10" departSpeed="0.00" departDelay="0.00" arrival="200.00" arrivalLane="4o_0" arrivalPos="492.80" arrivalSpeed="8.51" duration="89.00" routeLength="990.53" waitingTime="0.00" waitingCount="0" stopTime="0.00" timeLoss="8.36" rerouteNo="0" devices="tripinfo_NS_111" vType="car" speedFactor="0.88" vaporized=""/>
    <tripinfo id="WE_122" depart="122.00" departLane="1i_0" departPos="4.10" departSpeed="0.00" departDelay="0.00" arrival="200.00" arrivalLane="3o_0" arrivalPos="492.80" arrivalSpeed="10.48" duration="78.00" routeLength="990.53" waitingTime="0.00" waitingCount="0" stopTime="0.00" timeLoss="8.45" rerouteNo="0" devices="tripinfo_WE_122" vType="car" speedFactor="1.02" vaporized=""/>
    <tripinfo id="WE_132" depart="132.00" departLane="1i_0" departPos="4.10" departSpeed="0.00" departDelay="0.00" arrival="204.00" arrivalLane="3o_0" arrivalPos="492.80" arrivalSpeed="11.12" duration="72.00" routeLength="990.53" waitingTime="0.00" waitingCount="0" stopTime="0.00" timeLoss="7.72" rerouteNo="0" devices="tripinfo_WE_132" vType="car" speedFactor="1.10" vaporized=""/>
    <tripinfo id="NS_134" depart="135.00" departLane="2i_0" departPos="4.10" departSpeed="0.00" departDelay="1.00" arrival="214.00" arrivalLane="4o_0" arrivalPos="492.80" arrivalSpeed="10.87" duration="79.00" routeLength="990.53" waitingTime="0.00" waitingCount="0" stopTime="0.00" timeLoss="8.08" rerouteNo="0" devices="tripinfo_NS_134" vType="car" speedFactor="1.00" vaporized=""/>
    <tripinfo id="NS_148" depart="148.00" departLane="2i_0" departPos="4.10" departSpeed="0.00" departDelay="0.00" arrival="218.00" arrivalLane="1o_0" arrivalPos="492.80" arrivalSpeed="11.86" duration="70.00" routeLength="995.90" waitingTime="0.00" waitingCount="0" stopTime="0.00" timeLoss="7.31" rerouteNo="0" devices="tripinfo_NS_148" vType="car" speedFactor="1.14" vaporized=""/>
    <tripinfo id="WE_151" depart="151.00" departLane="1i_0" departPos="4.10" departSpeed="0.00" departDelay="0.00" arrival="230.00" arrivalLane="4o_0" arrivalPos="492.80" arrivalSpeed="10.33" duration="79.00" routeLength="995.70" waitingTime="0.00" waitingCount="0" stopTime="0.00" timeLoss="9.78" rerouteNo="0" devices="tripinfo_WE_151" vType="car" speedFactor="1.02" vaporized=""/>
    <tripinfo id="WE_158" depart="158.00" departLane="1i_0" departPos="4.10" departSpeed="0.00" departDelay="0.00" arrival="230.00" arrivalLane="2o_0" arrivalPos="492.80" arrivalSpeed="12.17" duration="72.00" routeLength="995.90" waitingTime="0.00" waitingCount="0" stopTime="0.00" timeLoss="8.03" rerouteNo="0" devices="tripinfo_WE_158" vType="car" speedFactor="1.12" vaporized=""/>
    <tripinfo id="NS_156" depart="156.00" departLane="2i_0" departPos="4.10" departSpeed="0.00" departDelay="0.00" arrival="232.00" arrivalLane="4o_0" arrivalPos="492.80" arrivalSpeed="10.94" duration="76.00" routeLength="990.53" waitingTime="0.00" waitingCount="0" stopTime="0.00" timeLoss="10.46" rerouteNo="0" devices="tripinfo_NS_156" vType="car" speedFactor="1.08" vaporized=""/>
    <tripinfo id="NS_158" depart="159.00" departLane="2i_0" departPos="4.10" departSpeed="0.00" departDelay="1.00" arrival="237.00" arrivalLane="1o_0" arrivalPos="492.80" arrivalSpeed="11.27" duration="78.00" routeLength="995.90" waitingTime="0.00" waitingCount="0" stopTime="0.00" timeLoss="8.23" rerouteNo="0" devices="tripinfo_NS_158" vType="car" speedFactor="1.02" vaporized=""/>
    <tripinfo id="NS_160" depart="162.00" departLane="2i_0" departPos="10.10" departSpeed="0.00" departDelay="2.00" arrival="247.00" arrivalLane="1o_0" arrivalPos="492.80" arrivalSpeed="10.33" duration="85.00" routeLength="989.90" waitingTime="0.00" waitingCount="0" stopTime="0.00" timeLoss="12.31" rerouteNo="0" devices="tripinfo_NS_160" vType="truck" speedFactor="0.97" vaporized=""/>
    <tripinfo id="NS_173" depart="173.00" departLane="2i_0" departPos="4.10" departSpeed="0.00" departDelay="0.00" arrival="259.00" arrivalLane="1o_0" arrivalPos="492.80" arrivalSpeed="9.43" duration="86.00" routeLength="995.90" waitingTime="0.00" waitingCount="0" stopTime="0.00" timeLoss="7.96" rerouteNo="0" devices="tripinfo_NS_173" vType="car" speedFactor="0.91" vaporized=""/>
    <tripinfo id="WE_174" depart="174.00" departLane="1i_0" departPos="4.10" departSpeed="0.00" departDelay="0.00" arrival="259.00" arrivalLane="2o_0" arrivalPos="492.80" arrivalSpeed="10.45" duration="85.00" routeLength="995.90" waitingTime="0.00" waitingCount="0" stopTime="0.00" timeLoss="16.99" rerouteNo="0" devices="tripinfo_WE_174" vType="car" speedFactor="1.04" vaporized=""/>
    <tripinfo id="WE_170" depart="170.00" departLane="1i_0" departPos="10.10" departSpeed="0.00" departDelay="0.00" arrival="260.00" arrivalLane="4o_0" arrivalPos="492.80" arrivalSpeed="10.00" duration="90.00" routeLength="989.70" waitingTime="0.00" waitingCount="0" stopTime="0.00" timeLoss="16.41" rerouteNo="0" devices="tripinfo_WE_170" vType="truck" speedFactor="0.95" vaporized=""/>
    <tripinfo id="WE_175" depart="178.00" departLane="1i_0" departPos="4.10" departSpeed="0.00" departDelay="3.00" arrival="262.00" arrivalLane="2o_0" arrivalPos="492.80" arrivalSpeed="11.25" duration="84.00" routeLength="995.90" waitingTime="0.00" waitingCount="0" stopTime="0.00" timeLoss="14.45" rerouteNo="0" devices="tripinfo_WE_175" vType="car" speedFactor="1.02" vaporized=""/>
    <tripinfo id="WE_179" depart="181.00" departLane="1i_0" departPos="4.10" departSpeed="0.00" departDelay="2.00" arrival="266.00" arrivalLane="2o_0" arrivalPos="492.80" arrivalSpeed="9.93" duration="85.00" routeLength="995.90" waitingTime="0.00" waitingCount="0" stopTime="0.00" timeLoss="11.92" rerouteNo="0" devices="tripinfo_WE_179" vType="car" speedFactor="0.97" vaporized=""/>
    <tripinfo id="WE_182" depart="184.00" departLane="1i_0" departPos="4.10" departSpeed="0.00" departDelay="2.00" arrival="271.00" arrivalLane="4o_0" arrivalPos="492.80" arrivalSpeed="10.60" duration="87.00" routeLength="995.70" waitingTime="2.00" waitingCount="1" stopTime="0.00" timeLoss="19.48" rerouteNo="0" devices="tripinfo_WE_182" vType="car" speedFactor="1.06" vaporized=""/>
    <tripinfo id="NS_184" depart="184.00" departLane="2i_0" departPos="10.10" departSpeed="0.00" departDelay="0.00" arrival="272.00" arrivalLane="3o_0" arrivalPos="492.80" arrivalSpeed="10.43" duration="88.00" routeLength="989.70" waitingTime="0.00" waitingCount="0" stopTime="0.00" timeLoss="16.11" rerouteNo="0" devices="tripinfo_NS_184" vType="truck" speedFactor="0.98" vaporized=""/>
    <tripinfo id="NS_211" depart="211.00" departLane="2i_0" departPos="4.10" departSpeed="0.00" departDelay="0.00" arrival="289.00" arrivalLane="1o_0" arrivalPos="492.80" arrivalSpeed="10.17" duration="78.00" routeLength="995.90" waitingTime="0.00" waitingCount="0" stopTime="0.00" timeLoss="7.87" rerouteNo="0" devices="tripinfo_NS_211" vType="car" speedFactor="1.02" vaporized=""/>
    <tripinfo id="WE_223" depart="223.00" departLane="1i_0" departPos="4.10" departSpeed="0.00" departDelay="0.00" arrival="299.00" arrivalLane="3o_0" arrivalPos="492.80" arrivalSpeed="10.45" duration="76.00" routeLength="990.53" waitingTime="0.00" waitingCount="0" stopTime="0.00" timeLoss="7.89" rerouteNo="0" devices="tripinfo_WE_223" vType="car" speedFactor="1.04" vaporized=""/>
    <tripinfo id="WE_225" depart="226.00" departLane="1i_0" departPos="4.10" departSpeed="0.00" departDelay="1.00" arrival="308.00" arrivalLane="4o_0" arrivalPos="492.80" arrivalSpeed="10.40" duration="82.00" routeLength="995.70" waitingTime="0.00" waitingCount="0" stopTime="0.00" timeLoss="11.19" rerouteNo="0" devices="tripinfo_WE_225" vType="car" speedFactor="1.01" vaporized=""/>
    <tripinfo id="WE_226" depart="228.00" departLane="1i_0" departPos="4.10" departSpeed="0.00" departDelay="2.00" arrival="308.00" arrivalLane="2o_0" arrivalPos="492.80" arrivalSpeed="10.77" duration="80.00" routeLength="995.90" waitingTime="0.00" waitingCount="0" stopTime="0.00" timeLoss="10.29" rerouteNo="0" devices="tripinfo_WE_226" vType="car" speedFactor="1.02" vaporized=""/>
    <tripinfo id="WE_245" depart="247.00" departLane="1i_0" departPos="4.10" departSpeed="0.00" departDelay="2.00" arrival="323.00" arrivalLane="3o_0" arrivalPos="492.80" arrivalSpeed="11.47" duration="76.00" routeLength="990.53" waitingTime="0.00" waitingCount="0" stopTime="0.00" timeLoss="8.58" rerouteNo="0" devices="tripinfo_WE_245" vType="car" speedFactor="1.06" vaporized=""/>
    <tripinfo id="WE_234" depart="234.00" departLane="1i_0" departPos="4.10" departSpeed="0.00" departDelay="0.00" arrival="329.00" arrivalLane="2o_0" arrivalPos="492.80" arrivalSpeed="8.98" duration="95.00" routeLength="995.90" waitingTime="0.00" waitingCount="0" stopTime="0.00" timeLoss="9.30" rerouteNo="0" devices="tripinfo_WE_234" vType="car" speedFactor="0.83" vaporized=""/>
    <tripinfo id="WE_236" depart="237.00" departLane="1i_0" departPos="4.10" departSpeed="0.00" departDelay="1.00" arrival="330.00" arrivalLane="2o_0" arrivalPos="492.80" arrivalSpeed="9.06" duration="93.00" routeLength="995.90" waitingTime="0.00" waitingCount="0" stopTime="0.00" timeLoss="16.32" rerouteNo="0" devices="tripinfo_WE_236" vType="car" speedFactor="0.92" vaporized=""/>
    <tripinfo id="NS_250" depart="250.00" departLane="2i_0" departPos="4.10" departSpeed="0.00" departDelay="0.00" arrival="339.00" arrivalLane="3o_0" arrivalPos="492.80" arrivalSpeed="9.68" duration="89.00" routeLength="995.70" waitingTime="0.00" waitingCount="0" stopTime="0.00" timeLoss="10.31" rerouteNo="0" devices="tripinfo_NS_250" vType="car" speedFactor="0.91" vaporized=""/>
    <tripinfo id="NS_251" depart="253.00" departLane="2i_0" departPos="4.10" departSpeed="0.00" departDelay="2.00" arrival="340.00" arrivalLane="3o_0" arrivalPos="492.80" arrivalSpeed="11.38" duration="87.00" routeLength="995.70" waitingTime="0.00" waitingCount="0" stopTime="0.00" timeLoss="23.96" rerouteNo="0" devices="tripinfo_NS_251" vType="car" speedFactor="1.12" vaporized=""/>
    <tripinfo id="NS_253" depart="255.00" departLane="2i_0" departPos="4.10" departSpeed="0.00" departDelay="2.00" arrival="342.00" arrivalLane="3o_0" arrivalPos="492.80" arrivalSpeed="12.02" duration="87.00" routeLength="995.70" waitingTime="0.00" waitingCount="0" stopTime="0.00" timeLoss="22.24" rerouteNo="0" devices="tripinfo_NS_253" vType="car" speedFactor="1.10" vaporized=""/>
    <tripinfo id="WE_258" depart="259.00" departLane="1i_0" departPos="4.10" departSpeed="0.00" departDelay="1.00" arrival="342.00" arrivalLane="2o_0" arrivalPos="492.80" arrivalSpeed="10.40" duration="83.00" routeLength="995.90" waitingTime="0.00" waitingCount="0" stopTime="0.00" timeLoss="9.25" rerouteNo="0" devices="tripinfo_WE_258" vType="car" speedFactor="0.96" vaporized=""/>
    <tripinfo id="WE_265" depart="265.00" departLane="1i_0" departPos="4.10" departSpeed="0.00" departDelay="0.00" arrival="348.00" arrivalLane="3o_0" arrivalPos="492.80" arrivalSpeed="10.55" duration="83.00" routeLength="990.53" waitingTime="0.00" waitingCount="0" stopTime="0.00" timeLoss="8.53" rerouteNo="0" devices="tripinfo_WE_265" vType="car" speedFactor="0.95" vaporized=""/>
    <tripinfo id="NS_257" depart="259.00" departLane="2i_0" departPos="4.10" departSpeed="0.00" departDelay="2.00" arrival="350.00" arrivalLane="3o_0" arrivalPos="492.80" arrivalSpeed="10.79" duration="91.00" routeLength="995.70" waitingTime="5.00" waitingCount="1" stopTime="0.00" timeLoss="24.05" rerouteNo="0" devices="tripinfo_NS_257" vType="car" speedFactor="1.06" vaporized=""/>
    <tripinfo id="NS_271" depart="271.00" departLane="2i_0" departPos="4.10" departSpeed="0.00" departDelay="0.00" arrival="350.00" arrivalLane="1o_0" arrivalPos="492.80" arrivalSpeed="10.23" duration="79.00" routeLength="995.90" waitingTime="0.00" waitingCount="0" stopTime="0.00" timeLoss="8.58" rerouteNo="0" devices="tripinfo_NS_271" vType="car" speedFactor="1.01" vaporized=""/>
    <tripinfo id="NS_289" depart="289.00" departLane="2i_0" departPos="4.10" departSpeed="0.00" departDelay="0.00" arrival="362.00" arrivalLane="1o_0" arrivalPos="492.80" arrivalSpeed="11.71" duration="73.00" routeLength="995.90" waitingTime="0.00" waitingCount="0" stopTime="0.00" timeLoss="8.37" rerouteNo="0" devices="tripinfo_NS_289" vType="car" speedFactor="1.10" vaporized=""/>
    <tripinfo id="NS_294" depart="294.00" departLane="2i_0" departPos="10.10" departSpeed="0.00" departDelay="0.00" arrival="378.00" arrivalLane="4o_0" arrivalPos="492.80" arrivalSpeed="10.15" duration="84.00" routeLength="984.53" waitingTime="0.00" waitingCount="0" stopTime="0.00" timeLoss="10.95" rerouteNo="0" devices="tripinfo_NS_294" vType="truck" speedFactor="0.96" vaporized=""/>
    <tripinfo id="NS_298" depart="298.00" departLane="2i_0" departPos="4.10" departSpeed="0.00" departDelay="0.00" arrival="381.00" arrivalLane="4o_0" arrivalPos="492.80" arrivalSpeed="9.97" duration="83.00" routeLength="990.53" waitingTime="0.00" waitingCount="0" stopTime="0.00" timeLoss="11.37" rerouteNo="0" devices="tripinfo_NS_298" vType="car" speedFactor="0.99" vaporized=""/>
    <tripinfo id="EW_20" depart="20.00" departLane="4i_0" departPos="4.10" departSpeed="0.00" departDelay="0.00" arrival="383.00" arrivalLane="3o_0" arrivalPos="492.80" arrivalSpeed="10.91" duration="363.00" routeLength="981.50" waitingTime="321.00" waitingCount="2" stopTime="0.00" timeLoss="331.07" rerouteNo="0" devices="tripinfo_EW_20" vType="car" speedFactor="1.03" vaporized=""/>
    <tripinfo id="WE_297" depart="297.00" departLane="1i_0" departPos="4.10" departSpeed="0.00" departDelay="0.00" arrival="385.00" arrivalLane="3o_0" arrivalPos="492.80" arrivalSpeed="9.90" duration="88.00" routeLength="990.53" waitingTime="3.00" waitingCount="1" stopTime="0.00" timeLoss="17.93" rerouteNo="0" devices="tripinfo_WE_297" vType="car" speedFactor="1.00" vaporized=""/>
    <tripinfo id="WE_308" depart="308.00" departLane="1i_0" departPos="4.10" departSpeed="0.00" departDelay="0.00" arrival="387.00" arrivalLane="3o_0" arrivalPos="492.80" arrivalSpeed="11.01" duration="79.00" routeLength="990.53" waitingTime="0.00" waitingCount="0" stopTime="0.00" timeLoss="12.77" rerouteNo="0" devices="tripinfo_WE_308" vType="car" speedFactor="1.07" vaporized=""/>
    <tripinfo id="WE_283" depart="283.00" departLane="1i_0" departPos="4.10" departSpeed="0.00" departDelay="0.00" arrival="388.00" arrivalLane="4o_0" arrivalPos="492.80" arrivalSpeed="9.64" duration="105.00" routeLength="995.70" waitingTime="14.00" waitingCount="1" stopTime="0.00" timeLoss="28.11" rerouteNo="0" devices="tripinfo_WE_283" vType="car" speedFactor="0.93" vaporized=""/>
    <tripinfo id="WE_311" depart="311.00" departLane="1i_0" departPos="4.10" departSpeed="0.00" departDelay="0.00" arrival="389.00" arrivalLane="3o_0" arrivalPos="492.80" arrivalSpeed="12.24" duration="78.00" routeLength="990.53" waitingTime="0.00" waitingCount="0" stopTime="0.00" timeLoss="13.17" rerouteNo="0" devices="tripinfo_WE_311" vType="car" speedFactor="1.10" vaporized=""/>
    <tripinfo id="WE_326" depart="326.00" departLane="1i_0" departPos="4.10" departSpeed="0.00" departDelay="0.00" arrival="401.00" arrivalLane="2o_0" arrivalPos="492.80" arrivalSpeed="11.03" duration="75.00" routeLength="995.90" waitingTime="0.00" waitingCount="0" stopTime="0.00" timeLoss="8.40" rerouteNo="0" devices="tripinfo_WE_326" vType="car" speedFactor="1.06" vaporized=""/>
    <tripinfo id="WE_346" depart="346.00" departLane="1i_0" departPos="4.10" departSpeed="0.00" departDelay="0.00" arrival="423.00" arrivalLane="2o_0" arrivalPos="492.80" arrivalSpeed="11.32" duration="77.00" routeLength="995.90" waitingTime="0.00" waitingCount="0" stopTime="0.00" timeLoss="8.31" rerouteNo="0" devices="tripinfo_WE_346" vType="car" speedFactor="1.03" vaporized=""/>
    <tripinfo id="SN_27" depart="27.00" departLane="3i_0" departPos="10.10" departSpeed="0.00" departDelay="0.00" arrival="433.00" arrivalLane="4o_0" arrivalPos="492.80" arrivalSpeed="10.23" duration="406.00" routeLength="989.90" waitingTime="307.00" waitingCount="2" stopTime="0.00" timeLoss="333.21" rerouteNo="0" devices="tripinfo_SN_27" vType="truck" speedFactor="0.97" vaporized=""/>
    <tripinfo id="SN_73" depart="73.00" departLane="3i_0" departPos="4.10" departSpeed="0.00" departDelay="0.00" arrival="433.00" arrivalLane="1o_0" arrivalPos="492.80" arrivalSpeed="11.85" duration="360.00" routeLength="995.70" waitingTime="277.00" waitingCount="1" stopTime="0.00" timeLoss="298.49" rerouteNo="0" devices="tripinfo_SN_73" vType="car" speedFactor="1.15" vaporized=""/>
    <tripinfo id="SN_47" depart="47.00" departLane="3i_0" departPos="4.10" departSpeed="0.00" departDelay="0.00" arrival="435.00" arrivalLane="4o_0" arrivalPos="492.80" arrivalSpeed="12.14" duration="388.00" routeLength="995.90" waitingTime="299.00" waitingCount="1" stopTime="0.00" timeLoss="326.79" rerouteNo="0" devices="tripinfo_SN_47" vType="car" speedFactor="1.16" vaporized=""/>