<?xml version="1.0" encoding="UTF-8"?>

<!-- generated on 2024-05-05 21:56:31 by Eclipse SUMO sumo Version 1.19.0
<configuration xmlns:xsi="http://www.w3.org/2001/XMLSchema-instance" xsi:noNamespaceSchemaLocation="http://sumo.dlr.de/xsd/sumoConfiguration.xsd">

    <input>
        <net-file value="twoone.net.xml"/>
        <route-files value="route_gen.rou.xml"/>
    </input>

    <output>
        <tripinfo-output value="tripinfo_epi153.xml"/>
    </output>

    <report>
        <no-warnings value="true"/>
    </report>

    <traci_server>
        <remote-port value="36873"/>
    </traci_server>

</configuration>
-->

<tripinfos xmlns:xsi="http://www.w3.org/2001/XMLSchema-instance" xsi:noNamespaceSchemaLocation="http://sumo.dlr.de/xsd/tripinfo_file.xsd">
    <tripinfo id="NS_18" depart="18.00" departLane="2i_0" departPos="4.10" departSpeed="0.00" departDelay="0.00" arrival="94.00" arrivalLane="4o_0" arrivalPos="492.80" arrivalSpeed="11.31" duration="76.00" routeLength="990.53" waitingTime="0.00" waitingCount="0" stopTime="0.00" timeLoss="7.67" rerouteNo="0" devices="tripinfo_NS_18" vType="car" speedFactor="1.03" vaporized=""/>
    <tripinfo id="WE_13" depart="13.00" departLane="1i_0" departPos="4.10" departSpeed="0.00" departDelay="0.00" arrival="96.00" arrivalLane="3o_0" arrivalPos="492.80" arrivalSpeed="9.48" duration="83.00" routeLength="990.53" waitingTime="0.00" waitingCount="0" stopTime="0.00" timeLoss="7.45" rerouteNo="0" devices="tripinfo_WE_13" vType="car" speedFactor="0.94" vaporized=""/>
    <tripinfo id="EW_2" depart="2.00" departLane="4i_0" departPos="4.10" departSpeed="0.00" departDelay="0.00" arrival="102.00" arrivalLane="3o_0" arrivalPos="492.80" arrivalSpeed="10.59" duration="100.00" routeLength="995.90" waitingTime="21.00" waitingCount="1" stopTime="0.00" timeLoss="33.27" rerouteNo="0" devices="tripinfo_EW_2" vType="car" speedFactor="1.06" vaporized=""/>
    <tripinfo id="SN_13" depart="13.00" departLane="3i_0" departPos="10.10" departSpeed="0.00" departDelay="0.00" arrival="110.00" arrivalLane="1o_0" arrivalPos="492.80" arrivalSpeed="10.84" duration="97.00" routeLength="989.70" waitingTime="3.00" waitingCount="1" stopTime="0.00" timeLoss="27.01" rerouteNo="0" devices="tripinfo_SN_13" vType="truck" speedFactor="1.01" vaporized=""/>
    <tripinfo id="NS_26" depart="26.00" departLane="2i_0" departPos="4.10" departSpeed="0.00" departDelay="0.00" arrival="119.00" arrivalLane="4o_0" arrivalPos="492.80" arrivalSpeed="9.77" duration="93.00" routeLength="990.53" waitingTime="0.00" waitingCount="0" stopTime="0.00" timeLoss="17.55" rerouteNo="0" devices="tripinfo_NS_26" vType="car" speedFactor="0.94" vaporized=""/>
    <tripinfo id="SN_17" depart="17.00" departLane="3i_0" departPos="4.10" departSpeed="0.00" departDelay="0.00" arrival="120.00" arrivalLane="4o_0" arrivalPos="492.80" arrivalSpeed="11.66" duration="103.00" routeLength="995.90" waitingTime="4.00" waitingCount="2" stopTime="0.00" timeLoss="37.84" rerouteNo="0" devices="tripinfo_SN_17" vType="car" speedFactor="1.08" vaporized=""/>
    <tripinfo id="NS_35" depart="35.00" departLane="2i_0" departPos="4.10" departSpeed="0.00" departDelay="0.00" arrival="122.00" arrivalLane="4o_0" arrivalPos="492.80" arrivalSpeed="12.07" duration="87.00" routeLength="990.53" waitingTime="0.00" waitingCount="0" stopTime="0.00" timeLoss="22.42" rerouteNo="0" devices="tripinfo_NS_35" vType="car" speedFactor="1.09" vaporized=""/>
    <tripinfo id="WE_50" depart="50.00" departLane="1i_0" departPos="4.10" departSpeed="0.00" departDelay="0.00" arrival="122.00" arrivalLane="2o_0" arrivalPos="492.80" arrivalSpeed="11.55" duration="72.00" routeLength="995.90" waitingTime="0.00" waitingCount="0" stopTime="0.00" timeLoss="8.67" rerouteNo="0" devices="tripinfo_WE_50" vType="car" speedFactor="1.12" vaporized=""/>
    <tripinfo id="NS_20" depart="21.00" departLane="2i_0" departPos="4.10" departSpeed="0.00" departDelay="1.00" arrival="125.00" arrivalLane="1o_0" arrivalPos="492.80" arrivalSpeed="8.30" duration="104.00" routeLength="995.90" waitingTime="2.00" waitingCount="2" stopTime="0.00" timeLoss="18.41" rerouteNo="0" devices="tripinfo_NS_20" vType="car" speedFactor="0.83" vaporized=""/>
    <tripinfo id="EW_26" depart="26.00" departLane="4i_0" departPos="4.10" departSpeed="0.00" departDelay="0.00" arrival="126.00" arrivalLane="1o_0" arrivalPos="492.80" arrivalSpeed="8.78" duration="100.00" routeLength="990.53" waitingTime="5.00" waitingCount="1" stopTime="0.00" timeLoss="20.69" rerouteNo="0" devices="tripinfo_EW_26" vType="car" speedFactor="0.89" vaporized=""/>
    <tripinfo id="NS_30" depart="30.00" departLane="2i_0" departPos="4.10" departSpeed="0.00" departDelay="0.00" arrival="130.00" arrivalLane="1o_0" arrivalPos="492.80" arrivalSpeed="9.10" duration="100.00" routeLength="995.90" waitingTime="0.00" waitingCount="0" stopTime="0.00" timeLoss="17.32" rerouteNo="0" devices="tripinfo_NS_30" vType="car" speedFactor="0.86" vaporized=""/>
    <tripinfo id="SN_21" depart="21.00" departLane="3i_0" departPos="4.10" departSpeed="0.00" departDelay="0.00" arrival="132.00" arrivalLane="1o_0" arrivalPos="492.80" arrivalSpeed="11.37" duration="111.00" routeLength="995.70" waitingTime="3.00" waitingCount="2" stopTime="0.00" timeLoss="42.79" rerouteNo="0" devices="tripinfo_SN_21" vType="car" speedFactor="1.05" vaporized=""/>
    <tripinfo id="NS_44" depart="44.00" departLane="2i_0" departPos="4.10" departSpeed="0.00" departDelay="0.00" arrival="133.00" arrivalLane="1o_0" arrivalPos="492.80" arrivalSpeed="11.18" duration="89.00" routeLength="995.90" waitingTime="0.00" waitingCount="0" stopTime="0.00" timeLoss="20.11" rerouteNo="0" devices="tripinfo_NS_44" vType="car" speedFactor="1.03" vaporized=""/>
    <tripinfo id="NS_52" depart="52.00" departLane="2i_0" departPos="4.10" departSpeed="0.00" departDelay="0.00" arrival="133.00" arrivalLane="3o_0" arrivalPos="492.80" arrivalSpeed="10.15" duration="81.00" routeLength="995.70" waitingTime="0.00" waitingCount="0" stopTime="0.00" timeLoss="9.70" rerouteNo="0" devices="tripinfo_NS_52" vType="car" speedFactor="0.99" vaporized=""/>
    <tripinfo id="WE_56" depart="56.00" departLane="1i_0" departPos="4.10" departSpeed="0.00" departDelay="0.00" arrival="139.00" arrivalLane="2o_0" arrivalPos="492.80" arrivalSpeed="9.67" duration="83.00" routeLength="995.90" waitingTime="0.00" waitingCount="0" stopTime="0.00" timeLoss="7.88" rerouteNo="0" devices="tripinfo_WE_56" vType="car" speedFactor="0.94" vaporized=""/>
    <tripinfo id="NS_53" depart="55.00" departLane="2i_0" departPos="4.10" departSpeed="0.00" departDelay="2.00" arrival="144.00" arrivalLane="3o_0" arrivalPos="492.80" arrivalSpeed="9.73" duration="89.00" routeLength="995.70" waitingTime="0.00" waitingCount="0" stopTime="0.00" timeLoss="12.21" rerouteNo="0" devices="tripinfo_NS_53" vType="car" speedFactor="0.93" vaporized=""/>
    <tripinfo id="NS_60" depart="60.00" departLane="2i_0" departPos="10.10" departSpeed="0.00" departDelay="0.00" arrival="146.00" arrivalLane="3o_0" arrivalPos="492.80" arrivalSpeed="11.55" duration="86.00" routeLength="989.70" waitingTime="0.00" waitingCount="0" stopTime="0.00" timeLoss="19.60" rerouteNo="0" devices="tripinfo_NS_60" vType="truck" speedFactor="1.08" vaporized=""/>
    <tripinfo id="EW_48" depart="48.00" departLane="4i_0" departPos="4.10" departSpeed="0.00" departDelay="0.00" arrival="150.00" arrivalLane="3o_0" arrivalPos="492.80" arrivalSpeed="11.48" duration="102.00" routeLength="995.90" waitingTime="18.00" waitingCount="2" stopTime="0.00" timeLoss="34.39" rerouteNo="0" devices="tripinfo_EW_48" vType="car" speedFactor="1.05" vaporized=""/>
    <tripinfo id="SN_59" depart="59.00" departLane="3i_0" departPos="4.10" departSpeed="0.00" departDelay="0.00" arrival="155.00" arrivalLane="4o_0" arrivalPos="492.80" arrivalSpeed="9.42" duration="96.00" routeLength="995.90" waitingTime="4.00" waitingCount="1" stopTime="0.00" timeLoss="20.36" rerouteNo="0" devices="tripinfo_SN_59" vType="car" speedFactor="0.94" vaporized=""/>
    <tripinfo id="SN_60" depart="62.00" departLane="3i_0" departPos="4.10" departSpeed="0.00" departDelay="2.00" arrival="156.00" arrivalLane="1o_0" arrivalPos="492.80" arrivalSpeed="10.99" duration="94.00" routeLength="995.70" waitingTime="4.00" waitingCount="2" stopTime="0.00" timeLoss="23.89" rerouteNo="0" devices="tripinfo_SN_60" vType="car" speedFactor="1.02" vaporized=""/>
    <tripinfo id="EW_55" depart="55.00" departLane="4i_0" departPos="4.10" departSpeed="0.00" departDelay="0.00" arrival="163.00" arrivalLane="2o_0" arrivalPos="492.80" arrivalSpeed="8.52" duration="108.00" routeLength="995.70" waitingTime="8.00" waitingCount="1" stopTime="0.00" timeLoss="27.37" rerouteNo="0" devices="tripinfo_EW_55" vType="car" speedFactor="0.88" vaporized=""/>
    <tripinfo id="WE_69" depart="69.00" departLane="1i_0" departPos="4.10" departSpeed="0.00" departDelay="0.00" arrival="166.00" arrivalLane="3o_0" arrivalPos="492.80" arrivalSpeed="7.98" duration="97.00" routeLength="990.53" waitingTime="0.00" waitingCount="0" stopTime="0.00" timeLoss="11.62" rerouteNo="0" devices="tripinfo_WE_69" vType="car" speedFactor="0.83" vaporized=""/>
    <tripinfo id="NS_89" depart="89.00" departLane="2i_0" departPos="4.10" departSpeed="0.00" departDelay="0.00" arrival="167.00" arrivalLane="4o_0" arrivalPos="492.80" arrivalSpeed="11.05" duration="78.00" routeLength="990.53" waitingTime="0.00" waitingCount="0" stopTime="0.00" timeLoss="7.95" rerouteNo="0" devices="tripinfo_NS_89" vType="car" speedFactor="1.01" vaporized=""/>
    <tripinfo id="WE_80" depart="80.00" departLane="1i_0" departPos="4.10" departSpeed="0.00" departDelay="0.00" arrival="168.00" arrivalLane="3o_0" arrivalPos="492.80" arrivalSpeed="9.29" duration="88.00" routeLength="990.53" waitingTime="0.00" waitingCount="0" stopTime="0.00" timeLoss="13.37" rerouteNo="0" devices="tripinfo_WE_80" vType="car" speedFactor="0.95" vaporized=""/>
    <tripinfo id="SN_62" depart="64.00" departLane="3i_0" departPos="4.10" departSpeed="0.00" departDelay="2.00" arrival="170.00" arrivalLane="1o_0" arrivalPos="492.80" arrivalSpeed="10.17" duration="106.00" routeLength="995.70" waitingTime="8.00" waitingCount="3" stopTime="0.00" timeLoss="35.72" rerouteNo="0" devices="tripinfo_SN_62" vType="car" speedFactor="1.01" vaporized=""/>
    <tripinfo id="EW_75" depart="75.00" departLane="4i_0" departPos="4.10" departSpeed="0.00" departDelay="0.00" arrival="170.00" arrivalLane="3o_0" arrivalPos="492.80" arrivalSpeed="9.89" duration="95.00" routeLength="995.90" waitingTime="4.00" waitingCount="1" stopTime="0.00" timeLoss="17.74" rerouteNo="0" devices="tripinfo_EW_75" vType="car" speedFactor="0.92" vaporized=""/>
    <tripinfo id="EW_83" depart="83.00" departLane="4i_0" departPos="4.10" departSpeed="0.00" departDelay="0.00" arrival="172.00" arrivalLane="3o_0" arrivalPos="492.80" arrivalSpeed="9.14" duration="89.00" routeLength="995.90" waitingTime="0.00" waitingCount="0" stopTime="0.00" timeLoss="12.94" rerouteNo="0" devices="tripinfo_EW_83" vType="car" speedFactor="0.93" vaporized=""/>
    <tripinfo id="EW_85" depart="86.00" departLane="4i_0" departPos="4.10" departSpeed="0.00" departDelay="1.00" arrival="174.00" arrivalLane="2o_0" arrivalPos="492.80" arrivalSpeed="11.76" duration="88.00" routeLength="995.70" waitingTime="7.00" waitingCount="2" stopTime="0.00" timeLoss="26.45" rerouteNo="0" devices="tripinfo_EW_85" vType="car" speedFactor="1.15" vaporized=""/>
    <tripinfo id="SN_66" depart="67.00" departLane="3i_0" departPos="4.10" departSpeed="0.00" departDelay="1.00" arrival="178.00" arrivalLane="4o_0" arrivalPos="492.80" arrivalSpeed="10.56" duration="111.00" routeLength="995.90" waitingTime="6.00" waitingCount="3" stopTime="0.00" timeLoss="38.48" rerouteNo="0" devices="tripinfo_SN_66" vType="car" speedFactor="0.97" vaporized=""/>
    <tripinfo id="WE_98" depart="98.00" departLane="1i_0" departPos="4.10" departSpeed="0.00" departDelay="0.00" arrival="180.00" arrivalLane="4o_0" arrivalPos="492.80" arrivalSpeed="10.60" duration="82.00" routeLength="995.70" waitingTime="0.00" waitingCount="0" stopTime="0.00" timeLoss="12.39" rerouteNo="0" devices="tripinfo_WE_98" vType="car" speedFactor="1.02" vaporized=""/>
    <tripinfo id="EW_92" depart="92.00" departLane="4i_0" departPos="4.10" departSpeed="0.00" departDelay="0.00" arrival="183.00" arrivalLane="2o_0" arrivalPos="492.80" arrivalSpeed="9.85" duration="91.00" routeLength="995.70" waitingTime="1.00" waitingCount="1" stopTime="0.00" timeLoss="19.73" rerouteNo="0" devices="tripinfo_EW_92" vType="car" speedFactor="0.99" vaporized=""/>
    <tripinfo id="WE_99" depart="101.00" departLane="1i_0" departPos="4.10" departSpeed="0.00" departDelay="2.00" arrival="187.00" arrivalLane="2o_0" arrivalPos="492.80" arrivalSpeed="10.37" duration="86.00" routeLength="995.90" waitingTime="1.00" waitingCount="1" stopTime="0.00" timeLoss="13.39" rerouteNo="0" devices="tripinfo_WE_99" vType="car" speedFactor="0.97" vaporized=""/>
    <tripinfo id="WE_102" depart="104.00" departLane="1i_0" departPos="4.10" departSpeed="0.00" departDelay="2.00" arrival="188.00" arrivalLane="3o_0" arrivalPos="492.80" arrivalSpeed="12.22" duration="84.00" routeLength="990.53" waitingTime="2.00" waitingCount="1" stopTime="0.00" timeLoss="19.71" rerouteNo="0" devices="tripinfo_WE_102" vType="car" speedFactor="1.10" vaporized=""/>
    <tripinfo id="WE_105" depart="106.00" departLane="1i_0" departPos="4.10" departSpeed="0.00" departDelay="1.00" arrival="193.00" arrivalLane="3o_0" arrivalPos="492.80" arrivalSpeed="11.11" duration="87.00" routeLength="990.53" waitingTime="2.00" waitingCount="1" stopTime="0.00" timeLoss="18.42" rerouteNo="0" devices="tripinfo_WE_105" vType="car" speedFactor="1.03" vaporized=""/>
    <tripinfo id="SN_67" depart="70.00" departLane="3i_0" departPos="4.10" departSpeed="0.00" departDelay="3.00" arrival="195.00" arrivalLane="2o_0" arrivalPos="492.80" arrivalSpeed="8.93" duration="125.00" routeLength="990.53" waitingTime="8.00" waitingCount="5" stopTime="0.00" timeLoss="45.33" rerouteNo="0" devices="tripinfo_SN_67" vType="car" speedFactor="0.89" vaporized=""/>
    <tripinfo id="SN_70" depart="73.00" departLane="3i_0" departPos="4.10" departSpeed="0.00" departDelay="3.00" arrival="198.00" arrivalLane="2o_0" arrivalPos="492.80" arrivalSpeed="9.43" duration="125.00" routeLength="990.53" waitingTime="6.00" waitingCount="4" stopTime="0.00" timeLoss="43.78" rerouteNo="0" devices="tripinfo_SN_70" vType="car" speedFactor="0.87" vaporized=""/>
    <tripinfo id="SN_84" depart="84.00" departLane="3i_0" departPos="4.10" departSpeed="0.00" departDelay="0.00" arrival="198.00" arrivalLane="1o_0" arrivalPos="492.80" arrivalSpeed="12.08" duration="114.00" routeLength="995.70" waitingTime="6.00" waitingCount="2" stopTime="0.00" timeLoss="53.78" rerouteNo="0" devices="tripinfo_SN_84" vType="car" speedFactor="1.18" vaporized=""/>
    <tripinfo id="EW_104" depart="104.00" departLane="4i_0" departPos="4.10" departSpeed="0.00" departDelay="0.00" arrival="200.00" arrivalLane="2o_0" arrivalPos="492.80" arrivalSpeed="9.40" duration="96.00" routeLength="995.70" waitingTime="3.00" waitingCount="1" stopTime="0.00" timeLoss="16.79" rerouteNo="0" devices="tripinfo_EW_104" vType="car" speedFactor="0.90" vaporized=""/>
    <tripinfo id="WE_109" depart="110.00" departLane="1i_0" departPos="4.10" departSpeed="0.00" departDelay="1.00" arrival="201.00" arrivalLane="2o_0" arrivalPos="492.80" arrivalSpeed="11.31" duration="91.00" routeLength="995.90" waitingTime="2.00" waitingCount="1" stopTime="0.00" timeLoss="26.04" rerouteNo="0" devices="tripinfo_WE_109" vType="car" speedFactor="1.09" vaporized=""/>
    <tripinfo id="SN_82" depart="82.00" departLane="3i_0" departPos="4.10" departSpeed="0.00" departDelay="0.00" arrival="203.00" arrivalLane="2o_0" arrivalPos="492.80" arrivalSpeed="12.19" duration="121.00" routeLength="990.53" waitingTime="5.00" waitingCount="3" stopTime="0.00" timeLoss="58.45" rerouteNo="0" devices="tripinfo_SN_82" vType="car" speedFactor="1.13" vaporized=""/>
    <tripinfo id="EW_107" depart="107.00" departLane="4i_0" departPos="4.10" departSpeed="0.00" departDelay="0.00" arrival="207.00" arrivalLane="2o_0" arrivalPos="492.80" arrivalSpeed="9.74" duration="100.00" routeLength="995.70" waitingTime="7.00" waitingCount="3" stopTime="0.00" timeLoss="26.32" rerouteNo="0" devices="tripinfo_EW_107" vType="car" speedFactor="0.96" vaporized=""/>
    <tripinfo id="SN_91" depart="91.00" departLane="3i_0" departPos="4.10" departSpeed="0.00" departDelay="0.00" arrival="209.00" arrivalLane="2o_0" arrivalPos="492.80" arrivalSpeed="12.73" duration="118.00" routeLength="990.53" waitingTime="10.00" waitingCount="3" stopTime="0.00" timeLoss="57.66" rerouteNo="0" devices="tripinfo_SN_91" vType="car" speedFactor="1.17" vaporized=""/>
    <tripinfo id="WE_122" depart="122.00" departLane="1i_0" departPos="4.10" departSpeed="0.00" departDelay="0.00" arrival="209.00" arrivalLane="3o_0" arrivalPos="492.80" arrivalSpeed="9.27" duration="87.00" routeLength="990.53" waitingTime="0.00" waitingCount="0" stopTime="0.00" timeLoss="8.23" rerouteNo="0" devices="tripinfo_WE_122" vType="car" speedFactor="0.90" vaporized=""/>
    <tripinfo id="EW_116" depart="116.00" departLane="4i_0" departPos="4.10" departSpeed="0.00" departDelay="0.00" arrival="212.00" arrivalLane="1o_0" arrivalPos="492.80" arrivalSpeed="11.45" duration="96.00" routeLength="990.53" waitingTime="7.00" waitingCount="2" stopTime="0.00" timeLoss="28.12" rerouteNo="0" devices="tripinfo_EW_116" vType="car" speedFactor="1.04" vaporized=""/>
    <tripinfo id="EW_119" depart="120.00" departLane="4i_0" departPos="4.10" departSpeed="0.00" departDelay="1.00" arrival="219.00" arrivalLane="1o_0" arrivalPos="492.80" arrivalSpeed="11.04" duration="99.00" routeLength="990.53" waitingTime="9.00" waitingCount="2" stopTime="0.00" timeLoss="33.57" rerouteNo="0" devices="tripinfo_EW_119" vType="car" speedFactor="1.09" vaporized=""/>
    <tripinfo id="SN_100" depart="100.00" departLane="3i_0" departPos="4.10" departSpeed="0.00" departDelay="0.00" arrival="220.00" arrivalLane="1o_0" arrivalPos="492.80" arrivalSpeed="13.04" duration="120.00" routeLength="995.70" waitingTime="11.00" waitingCount="5" stopTime="0.00" timeLoss="59.85" rerouteNo="0" devices="tripinfo_SN_100" vType="car" speedFactor="1.18" vaporized=""/>
    <tripinfo id="WE_133" depart="133.00" departLane="1i_0" departPos="4.10" departSpeed="0.00" departDelay="0.00" arrival="222.00" arrivalLane="3o_0" arrivalPos="492.80" arrivalSpeed="8.77" duration="89.00" routeLength="990.53" waitingTime="0.00" waitingCount="0" stopTime="0.00" timeLoss="8.23" rerouteNo="0" devices="tripinfo_WE_133" vType="car" speedFactor="0.88" vaporized=""/>
    <tripinfo id="WE_152" depart="152.00" departLane="1i_0" departPos="4.10" departSpeed="0.00" departDelay="0.00" arrival="225.00" arrivalLane="2o_0" arrivalPos="492.80" arrivalSpeed="12.01" duration="73.00" routeLength="995.90" waitingTime="0.00" waitingCount="0" stopTime="0.00" timeLoss="7.79" rerouteNo="0" devices="tripinfo_WE_152" vType="car" speedFactor="1.10" vaporized=""/>
    <tripinfo id="SN_110" depart="110.00" departLane="3i_0" departPos="4.10" departSpeed="0.00" departDelay="0.00" arrival="230.00" arrivalLane="4o_0" arrivalPos="492.80" arrivalSpeed="11.05" duration="120.00" routeLength="995.90" waitingTime="11.00" waitingCount="5" stopTime="0.00" timeLoss="52.03" rerouteNo="0" devices="tripinfo_SN_110" vType="car" speedFactor="1.04" vaporized=""/>
    <tripinfo id="EW_121" depart="122.00" departLane="4i_0" departPos="4.10" departSpeed="0.00" departDelay="1.00" arrival="232.00" arrivalLane="1o_0" arrivalPos="492.80" arrivalSpeed="10.16" duration="110.00" routeLength="990.53" waitingTime="15.00" waitingCount="4" stopTime="0.00" timeLoss="39.30" rerouteNo="0" devices="tripinfo_EW_121" vType="car" speedFactor="1.00" vaporized=""/>
    <tripinfo id="NS_150" depart="151.00" departLane="2i_0" departPos="4.10" departSpeed="0.00" departDelay="1.00" arrival="236.00" arrivalLane="3o_0" arrivalPos="492.80" arrivalSpeed="10.84" duration="85.00" routeLength="995.70" waitingTime="0.00" waitingCount="0" stopTime="0.00" timeLoss="15.33" rerouteNo="0" devices="tripinfo_NS_150" vType="car" speedFactor="1.02" vaporized=""/>
    <tripinfo id="NS_148" depart="148.00" departLane="2i_0" departPos="4.10" departSpeed="0.00" departDelay="0.00" arrival="244.00" arrivalLane="1o_0" arrivalPos="492.80" arrivalSpeed="8.48" duration="96.00" routeLength="995.90" waitingTime="0.00" waitingCount="0" stopTime="0.00" timeLoss="12.73" rerouteNo="0" devices="tripinfo_NS_148" vType="car" speedFactor="0.85" vaporized=""/>
    <tripinfo id="SN_139" depart="139.00" departLane="3i_0" departPos="4.10" departSpeed="0.00" departDelay="0.00" arrival="245.00" arrivalLane="2o_0" arrivalPos="492.80" arrivalSpeed="9.09" duration="106.00" routeLength="990.53" waitingTime="3.00" waitingCount="2" stopTime="0.00" timeLoss="23.42" rerouteNo="0" devices="tripinfo_SN_139" vType="car" speedFactor="0.85" vaporized=""/>
    <tripinfo id="WE_173" depart="173.00" departLane="1i_0" departPos="4.10" departSpeed="0.00" departDelay="0.00" arrival="247.00" arrivalLane="2o_0" arrivalPos="492.80" arrivalSpeed="11.41" duration="74.00" routeLength="995.90" waitingTime="0.00" waitingCount="0" stopTime="0.00" timeLoss="8.41" rerouteNo="0" devices="tripinfo_WE_173" vType="car" speedFactor="1.08" vaporized=""/>
    <tripinfo id="NS_174" depart="174.00" departLane="2i_0" departPos="4.10" departSpeed="0.00" departDelay="0.00" arrival="253.00" arrivalLane="1o_0" arrivalPos="492.80" arrivalSpeed="10.14" duration="79.00" routeLength="995.90" waitingTime="0.00" waitingCount="0" stopTime="0.00" timeLoss="9.41" rerouteNo="0" devices="tripinfo_NS_174" vType="car" speedFactor="1.02" vaporized=""/>
    <tripinfo id="WE_175" depart="175.00" departLane="1i_0" departPos="4.10" departSpeed="0.00" departDelay="0.00" arrival="255.00" arrivalLane="3o_0" arrivalPos="492.80" arrivalSpeed="10.65" duration="80.00" routeLength="990.53" waitingTime="0.00" waitingCount="0" stopTime="0.00" timeLoss="8.85" rerouteNo="0" devices="tripinfo_WE_175" vType="car" speedFactor="0.99" vaporized=""/>
    <tripinfo id="WE_181" depart="181.00" departLane="1i_0" departPos="4.10" departSpeed="0.00" departDelay="0.00" arrival="257.00" arrivalLane="3o_0" arrivalPos="492.80" arrivalSpeed="10.45" duration="76.00" routeLength="990.53" waitingTime="0.00" waitingCount="0" stopTime="0.00" timeLoss="8.12" rerouteNo="0" devices="tripinfo_WE_181" vType="car" speedFactor="1.04" vaporized=""/>
    <tripinfo id="NS_184" depart="184.00" departLane="2i_0" departPos="4.10" departSpeed="0.00" departDelay="0.00" arrival="263.00" arrivalLane="1o_0" arrivalPos="492.80" arrivalSpeed="11.23" duration="79.00" routeLength="995.90" waitingTime="0.00" waitingCount="0" stopTime="0.00" timeLoss="8.78" rerouteNo="0" devices="tripinfo_NS_184" vType="car" speedFactor="1.02" vaporized=""/>
    <tripinfo id="NS_190" depart="190.00" departLane="2i_0" departPos="4.10" departSpeed="0.00" departDelay="0.00" arrival="271.00" arrivalLane="4o_0" arrivalPos="492.80" arrivalSpeed="10.20" duration="81.00" routeLength="990.53" waitingTime="0.00" waitingCount="0" stopTime="0.00" timeLoss="8.66" rerouteNo="0" devices="tripinfo_NS_190" vType="car" speedFactor="0.97" vaporized=""/>
    <tripinfo id="WE_197" depart="198.00" departLane="1i_0" departPos="4.10" departSpeed="0.00" departDelay="1.00" arrival="280.00" arrivalLane="3o_0" arrivalPos="492.80" arrivalSpeed="9.54" duration="82.00" routeLength="990.53" waitingTime="0.00" waitingCount="0" stopTime="0.00" timeLoss="8.16" rerouteNo="0" devices="tripinfo_WE_197" vType="car" speedFactor="0.96" vaporized=""/>
    <tripinfo id="WE_202" depart="203.00" departLane="1i_0" departPos="4.10" departSpeed="0.00" departDelay="1.00" arrival="282.00" arrivalLane="2o_0" arrivalPos="492.80" arrivalSpeed="11.37" duration="79.00" routeLength="995.90" waitingTime="0.00" waitingCount="0" stopTime="0.00" timeLoss="10.24" rerouteNo="0" devices="tripinfo_WE_202" vType="car" speedFactor="1.03" vaporized=""/>
    <tripinfo id="WE_201" depart="201.00" departLane="1i_0" departPos="4.10" departSpeed="0.00" departDelay="0.00" arrival="283.00" arrivalLane="4o_0" arrivalPos="492.80" arrivalSpeed="10.70" duration="82.00" routeLength="995.70" waitingTime="0.00" waitingCount="0" stopTime="0.00" timeLoss="9.62" rerouteNo="0" devices="tripinfo_WE_201" vType="car" speedFactor="0.98" vaporized=""/>
    <tripinfo id="NS_209" depart="209.00" departLane="2i_0" departPos="4.10" departSpeed="0.00" departDelay="0.00" arrival="287.00" arrivalLane="4o_0" arrivalPos="492.80" arrivalSpeed="10.48" duration="78.00" routeLength="990.53" waitingTime="0.00" waitingCount="0" stopTime="0.00" timeLoss="8.24" rerouteNo="0" devices="tripinfo_NS_209" vType="car" speedFactor="1.01" vaporized=""/>
    <tripinfo id="NS_218" depart="218.00" departLane="2i_0" departPos="4.10" departSpeed="0.00" departDelay="0.00" arrival="298.00" arrivalLane="3o_0" arrivalPos="492.80" arrivalSpeed="10.02" duration="80.00" routeLength="995.70" waitingTime="0.00" waitingCount="0" stopTime="0.00" timeLoss="10.00" rerouteNo="0" devices="tripinfo_NS_218" vType="car" speedFactor="1.02" vaporized=""/>
    <tripinfo id="WE_233" depart="233.00" departLane="1i_0" departPos="4.10" departSpeed="0.00" departDelay="0.00" arrival="314.00" arrivalLane="4o_0" arrivalPos="492.80" arrivalSpeed="10.00" duration="81.00" routeLength="995.70" waitingTime="0.00" waitingCount="0" stopTime="0.00" timeLoss="10.17" rerouteNo="0" devices="tripinfo_WE_233" vType="car" speedFactor="1.00" vaporized=""/>
    <tripinfo id="WE_240" depart="240.00" departLane="1i_0" departPos="4.10" departSpeed="0.00" departDelay="0.00" arrival="318.00" arrivalLane="3o_0" arrivalPos="492.80" arrivalSpeed="10.61" duration="78.00" routeLength="990.53" waitingTime="0.00" waitingCount="0" stopTime="0.00" timeLoss="8.51" rerouteNo="0" devices="tripinfo_WE_240" vType="car" speedFactor="1.02" vaporized=""/>
    <tripinfo id="WE_257" depart="257.00" departLane="1i_0" departPos="4.10" departSpeed="0.00" departDelay="0.00" arrival="328.00" arrivalLane="2o_0" arrivalPos="492.80" arrivalSpeed="11.37" duration="71.00" routeLength="995.90" waitingTime="0.00" waitingCount="0" stopTime="0.00" timeLoss="8.05" rerouteNo="0" devices="tripinfo_WE_257" vType="car" speedFactor="1.12" vaporized=""/>
    <tripinfo id="WE_247" depart="247.00" departLane="1i_0" departPos="4.10" departSpeed="0.00" departDelay="0.00" arrival="332.00" arrivalLane="3o_0" arrivalPos="492.80" arrivalSpeed="9.07" duration="85.00" routeLength="990.53" waitingTime="0.00" waitingCount="0" stopTime="0.00" timeLoss="8.13" rerouteNo="0" devices="tripinfo_WE_247" vType="car" speedFactor="0.92" vaporized=""/>
    <tripinfo id="NS_265" depart="265.00" departLane="2i_0" departPos="4.10" departSpeed="0.00" departDelay="0.00" arrival="346.00" arrivalLane="1o_0" arrivalPos="492.80" arrivalSpeed="10.17" duration="81.00" routeLength="995.90" waitingTime="0.00" waitingCount="0" stopTime="0.00" timeLoss="7.61" rerouteNo="0" devices="tripinfo_NS_265" vType="car" speedFactor="0.97" vaporized=""/>
    <tripinfo id="NS_277" depart="277.00" departLane="2i_0" departPos="4.10" departSpeed="0.00" departDelay="0.00" arrival="364.00" arrivalLane="3o_0" arrivalPos="492.80" arrivalSpeed="11.32" duration="87.00" routeLength="995.70" waitingTime="4.00" waitingCount="1" stopTime="0.00" timeLoss="18.33" rerouteNo="0" devices="tripinfo_NS_277" vType="car" speedFactor="1.03" vaporized=""/>
    <tripinfo id="NS_281" depart="282.00" departLane="2i_0" departPos="4.10" departSpeed="0.00" departDelay="1.00" arrival="372.00" arrivalLane="1o_0" arrivalPos="492.80" arrivalSpeed="9.83" duration="90.00" routeLength="995.90" waitingTime="0.00" waitingCount="0" stopTime="0.00" timeLoss="13.62" rerouteNo="0" devices="tripinfo_NS_281" vType="car" speedFactor="0.93" vaporized=""/>
    <tripinfo id="NS_291" depart="291.00" departLane="2i_0" departPos="4.10" departSpeed="0.00" departDelay="0.00" arrival="374.00" arrivalLane="1o_0" arrivalPos="492.80" arrivalSpeed="12.46" duration="83.00" routeLength="995.90" waitingTime="0.00" waitingCount="0" stopTime="0.00" timeLoss="22.14" rerouteNo="0" devices="tripinfo_NS_291" vType="car" speedFactor="1.18" vaporized=""/>
    <tripinfo id="NS_295" depart="295.00" departLane="2i_0" departPos="4.10" departSpeed="0.00" departDelay="0.00" arrival="374.00" arrivalLane="4o_0" arrivalPos="492.80" arrivalSpeed="11.08" duration="79.00" routeLength="990.53" waitingTime="0.00" waitingCount="0" stopTime="0.00" timeLoss="8.41" rerouteNo="0" devices="tripinfo_NS_295" vType="car" speedFactor="1.00" vaporized=""/>
    <tripinfo id="NS_300" depart="300.00" departLane="2i_0" departPos="4.10" departSpeed="0.00" departDelay="0.00" arrival="376.00" arrivalLane="1o_0" arrivalPos="492.80" arrivalSpeed="11.13" duration="76.00" routeLength="995.90" waitingTime="1.00" waitingCount="1" stopTime="0.00" timeLoss="11.11" rerouteNo="0" devices="tripinfo_NS_300" vType="car" speedFactor="1.10" vaporized=""/>
    <tripinfo id="NS_298" depart="298.00" departLane="2i_0" departPos="4.10" departSpeed="0.00" departDelay="0.00" arrival="381.00" arrivalLane="4o_0" arrivalPos="492.80" arrivalSpeed="9.36" duration="83.00" routeLength="990.53" waitingTime="0.00" waitingCount="0" stopTime="0.00" timeLoss="8.11" rerouteNo="0" devices="tripinfo_NS_298" vType="car" speedFactor="0.94" vaporized=""/>
    <tripinfo id="NS_304" depart="304.00" departLane="2i_0" departPos="4.10" departSpeed="0.00" departDelay="0.00" arrival="383.00" arrivalLane="4o_0" arrivalPos="492.80" arrivalSpeed="11.17" duration="79.00" routeLength="990.53" waitingTime="0.00" waitingCount="0" stopTime="0.00" timeLoss="12.30" rerouteNo="0" devices="tripinfo_NS_304" vType="car" speedFactor="1.06" vaporized=""/>