<?xml version="1.0" encoding="UTF-8"?>

<!-- generated on 2024-05-05 22:59:34 by Eclipse SUMO sumo Version 1.19.0
<configuration xmlns:xsi="http://www.w3.org/2001/XMLSchema-instance" xsi:noNamespaceSchemaLocation="http://sumo.dlr.de/xsd/sumoConfiguration.xsd">

    <input>
        <net-file value="twoone.net.xml"/>
        <route-files value="route_gen.rou.xml"/>
    </input>

    <output>
        <tripinfo-output value="tripinfo_epi432.xml"/>
    </output>

    <report>
        <no-warnings value="true"/>
    </report>

    <traci_server>
        <remote-port value="54771"/>
    </traci_server>

</configuration>
-->

<tripinfos xmlns:xsi="http://www.w3.org/2001/XMLSchema-instance" xsi:noNamespaceSchemaLocation="http://sumo.dlr.de/xsd/tripinfo_file.xsd">
    <tripinfo id="SN_1" depart="1.00" departLane="3i_0" departPos="4.10" departSpeed="0.00" departDelay="0.00" arrival="80.00" arrivalLane="2o_0" arrivalPos="492.80" arrivalSpeed="11.69" duration="79.00" routeLength="990.53" waitingTime="1.00" waitingCount="1" stopTime="0.00" timeLoss="12.24" rerouteNo="0" devices="tripinfo_SN_1" vType="car" speedFactor="1.06" vaporized=""/>
    <tripinfo id="WE_4" depart="4.00" departLane="1i_0" departPos="4.10" departSpeed="0.00" departDelay="0.00" arrival="82.00" arrivalLane="3o_0" arrivalPos="492.80" arrivalSpeed="10.79" duration="78.00" routeLength="990.53" waitingTime="0.00" waitingCount="0" stopTime="0.00" timeLoss="8.23" rerouteNo="0" devices="tripinfo_WE_4" vType="car" speedFactor="1.01" vaporized=""/>
    <tripinfo id="WE_5" depart="7.00" departLane="1i_0" departPos="4.10" departSpeed="0.00" departDelay="2.00" arrival="82.00" arrivalLane="2o_0" arrivalPos="492.80" arrivalSpeed="11.29" duration="75.00" routeLength="995.90" waitingTime="0.00" waitingCount="0" stopTime="0.00" timeLoss="9.09" rerouteNo="0" devices="tripinfo_WE_5" vType="car" speedFactor="1.08" vaporized=""/>
    <tripinfo id="WE_6" depart="9.00" departLane="1i_0" departPos="4.10" departSpeed="0.00" departDelay="3.00" arrival="87.00" arrivalLane="2o_0" arrivalPos="492.80" arrivalSpeed="10.76" duration="78.00" routeLength="995.90" waitingTime="0.00" waitingCount="0" stopTime="0.00" timeLoss="8.60" rerouteNo="0" devices="tripinfo_WE_6" vType="car" speedFactor="1.03" vaporized=""/>
    <tripinfo id="WE_7" depart="12.00" departLane="1i_0" departPos="4.10" departSpeed="0.00" departDelay="5.00" arrival="105.00" arrivalLane="2o_0" arrivalPos="492.80" arrivalSpeed="8.46" duration="93.00" routeLength="995.90" waitingTime="0.00" waitingCount="0" stopTime="0.00" timeLoss="8.03" rerouteNo="0" devices="tripinfo_WE_7" vType="car" speedFactor="0.83" vaporized=""/>
    <tripinfo id="WE_9" depart="15.00" departLane="1i_0" departPos="4.10" departSpeed="0.00" departDelay="6.00" arrival="107.00" arrivalLane="4o_0" arrivalPos="492.80" arrivalSpeed="8.78" duration="92.00" routeLength="995.70" waitingTime="0.00" waitingCount="0" stopTime="0.00" timeLoss="11.86" rerouteNo="0" devices="tripinfo_WE_9" vType="car" speedFactor="0.89" vaporized=""/>
    <tripinfo id="EW_7" depart="7.00" departLane="4i_0" departPos="4.10" departSpeed="0.00" departDelay="0.00" arrival="108.00" arrivalLane="1o_0" arrivalPos="492.80" arrivalSpeed="11.11" duration="101.00" routeLength="990.53" waitingTime="19.00" waitingCount="1" stopTime="0.00" timeLoss="33.02" rerouteNo="0" devices="tripinfo_EW_7" vType="car" speedFactor="1.05" vaporized=""/>
    <tripinfo id="NS_26" depart="26.00" departLane="2i_0" departPos="4.10" departSpeed="0.00" departDelay="0.00" arrival="109.00" arrivalLane="4o_0" arrivalPos="492.80" arrivalSpeed="11.05" duration="83.00" routeLength="990.53" waitingTime="0.00" waitingCount="0" stopTime="0.00" timeLoss="13.65" rerouteNo="0" devices="tripinfo_NS_26" vType="car" speedFactor="1.03" vaporized=""/>
    <tripinfo id="WE_20" depart="20.00" departLane="1i_0" departPos="4.10" departSpeed="0.00" departDelay="0.00" arrival="111.00" arrivalLane="2o_0" arrivalPos="492.80" arrivalSpeed="8.95" duration="91.00" routeLength="995.90" waitingTime="0.00" waitingCount="0" stopTime="0.00" timeLoss="8.50" rerouteNo="0" devices="tripinfo_WE_20" vType="car" speedFactor="0.86" vaporized=""/>
    <tripinfo id="SN_2" depart="3.00" departLane="3i_0" departPos="4.10" departSpeed="0.00" departDelay="1.00" arrival="112.00" arrivalLane="4o_0" arrivalPos="492.80" arrivalSpeed="10.41" duration="109.00" routeLength="995.90" waitingTime="19.00" waitingCount="1" stopTime="0.00" timeLoss="33.50" rerouteNo="0" devices="tripinfo_SN_2" vType="car" speedFactor="0.94" vaporized=""/>
    <tripinfo id="SN_25" depart="25.00" departLane="3i_0" departPos="4.10" departSpeed="0.00" departDelay="0.00" arrival="113.00" arrivalLane="2o_0" arrivalPos="492.80" arrivalSpeed="11.08" duration="88.00" routeLength="990.53" waitingTime="3.00" waitingCount="2" stopTime="0.00" timeLoss="23.17" rerouteNo="0" devices="tripinfo_SN_25" vType="car" speedFactor="1.09" vaporized=""/>
    <tripinfo id="EW_27" depart="27.00" departLane="4i_0" departPos="4.10" departSpeed="0.00" departDelay="0.00" arrival="116.00" arrivalLane="1o_0" arrivalPos="492.80" arrivalSpeed="10.36" duration="89.00" routeLength="990.53" waitingTime="1.00" waitingCount="1" stopTime="0.00" timeLoss="21.46" rerouteNo="0" devices="tripinfo_EW_27" vType="car" speedFactor="1.05" vaporized=""/>
    <tripinfo id="EW_11" depart="11.00" departLane="4i_0" departPos="4.10" departSpeed="0.00" departDelay="0.00" arrival="120.00" arrivalLane="2o_0" arrivalPos="492.80" arrivalSpeed="10.12" duration="109.00" routeLength="995.70" waitingTime="15.00" waitingCount="1" stopTime="0.00" timeLoss="33.23" rerouteNo="0" devices="tripinfo_EW_11" vType="car" speedFactor="0.94" vaporized=""/>
    <tripinfo id="SN_27" depart="28.00" departLane="3i_0" departPos="4.10" departSpeed="0.00" departDelay="1.00" arrival="121.00" arrivalLane="2o_0" arrivalPos="492.80" arrivalSpeed="11.99" duration="93.00" routeLength="990.53" waitingTime="2.00" waitingCount="2" stopTime="0.00" timeLoss="30.45" rerouteNo="0" devices="tripinfo_SN_27" vType="car" speedFactor="1.12" vaporized=""/>
    <tripinfo id="NS_50" depart="50.00" departLane="2i_0" departPos="4.10" departSpeed="0.00" departDelay="0.00" arrival="121.00" arrivalLane="4o_0" arrivalPos="492.80" arrivalSpeed="12.03" duration="71.00" routeLength="990.53" waitingTime="0.00" waitingCount="0" stopTime="0.00" timeLoss="10.12" rerouteNo="0" devices="tripinfo_NS_50" vType="car" speedFactor="1.16" vaporized=""/>
    <tripinfo id="NS_46" depart="46.00" departLane="2i_0" departPos="4.10" departSpeed="0.00" departDelay="0.00" arrival="131.00" arrivalLane="1o_0" arrivalPos="492.80" arrivalSpeed="10.19" duration="85.00" routeLength="995.90" waitingTime="0.00" waitingCount="0" stopTime="0.00" timeLoss="8.91" rerouteNo="0" devices="tripinfo_NS_46" vType="car" speedFactor="0.94" vaporized=""/>
    <tripinfo id="WE_54" depart="54.00" departLane="1i_0" departPos="4.10" departSpeed="0.00" departDelay="0.00" arrival="133.00" arrivalLane="4o_0" arrivalPos="492.80" arrivalSpeed="10.35" duration="79.00" routeLength="995.70" waitingTime="0.00" waitingCount="0" stopTime="0.00" timeLoss="8.63" rerouteNo="0" devices="tripinfo_WE_54" vType="car" speedFactor="1.01" vaporized=""/>
    <tripinfo id="WE_71" depart="71.00" departLane="1i_0" departPos="4.10" departSpeed="0.00" departDelay="0.00" arrival="153.00" arrivalLane="3o_0" arrivalPos="492.80" arrivalSpeed="9.70" duration="82.00" routeLength="990.53" waitingTime="0.00" waitingCount="0" stopTime="0.00" timeLoss="6.90" rerouteNo="0" devices="tripinfo_WE_71" vType="car" speedFactor="0.95" vaporized=""/>
    <tripinfo id="NS_77" depart="77.00" departLane="2i_0" departPos="4.10" departSpeed="0.00" departDelay="0.00" arrival="154.00" arrivalLane="3o_0" arrivalPos="492.80" arrivalSpeed="11.95" duration="77.00" routeLength="995.70" waitingTime="0.00" waitingCount="0" stopTime="0.00" timeLoss="14.39" rerouteNo="0" devices="tripinfo_NS_77" vType="car" speedFactor="1.13" vaporized=""/>
    <tripinfo id="WE_85" depart="85.00" departLane="1i_0" departPos="4.10" departSpeed="0.00" departDelay="0.00" arrival="154.00" arrivalLane="2o_0" arrivalPos="492.80" arrivalSpeed="12.01" duration="69.00" routeLength="995.90" waitingTime="0.00" waitingCount="0" stopTime="0.00" timeLoss="8.22" rerouteNo="0" devices="tripinfo_WE_85" vType="car" speedFactor="1.17" vaporized=""/>
    <tripinfo id="WE_93" depart="93.00" departLane="1i_0" departPos="4.10" departSpeed="0.00" departDelay="0.00" arrival="161.00" arrivalLane="2o_0" arrivalPos="492.80" arrivalSpeed="12.34" duration="68.00" routeLength="995.90" waitingTime="0.00" waitingCount="0" stopTime="0.00" timeLoss="7.62" rerouteNo="0" devices="tripinfo_WE_93" vType="car" speedFactor="1.18" vaporized=""/>
    <tripinfo id="NS_79" depart="82.00" departLane="2i_0" departPos="4.10" departSpeed="0.00" departDelay="3.00" arrival="166.00" arrivalLane="1o_0" arrivalPos="492.80" arrivalSpeed="9.63" duration="84.00" routeLength="995.90" waitingTime="0.00" waitingCount="0" stopTime="0.00" timeLoss="7.41" rerouteNo="0" devices="tripinfo_NS_79" vType="car" speedFactor="0.93" vaporized=""/>
    <tripinfo id="NS_88" depart="88.00" departLane="2i_0" departPos="4.10" departSpeed="0.00" departDelay="0.00" arrival="167.00" arrivalLane="4o_0" arrivalPos="492.80" arrivalSpeed="9.95" duration="79.00" routeLength="990.53" waitingTime="0.00" waitingCount="0" stopTime="0.00" timeLoss="7.82" rerouteNo="0" devices="tripinfo_NS_88" vType="car" speedFactor="0.99" vaporized=""/>
    <tripinfo id="NS_90" depart="91.00" departLane="2i_0" departPos="4.10" departSpeed="0.00" departDelay="1.00" arrival="171.00" arrivalLane="4o_0" arrivalPos="492.80" arrivalSpeed="9.98" duration="80.00" routeLength="990.53" waitingTime="0.00" waitingCount="0" stopTime="0.00" timeLoss="7.58" rerouteNo="0" devices="tripinfo_NS_90" vType="car" speedFactor="0.97" vaporized=""/>
    <tripinfo id="WE_97" depart="97.00" departLane="1i_0" departPos="4.10" departSpeed="0.00" departDelay="0.00" arrival="173.00" arrivalLane="4o_0" arrivalPos="492.80" arrivalSpeed="11.65" duration="76.00" routeLength="995.70" waitingTime="0.00" waitingCount="0" stopTime="0.00" timeLoss="10.67" rerouteNo="0" devices="tripinfo_WE_97" vType="car" speedFactor="1.09" vaporized=""/>
    <tripinfo id="NS_93" depart="94.00" departLane="2i_0" departPos="10.10" departSpeed="0.00" departDelay="1.00" arrival="181.00" arrivalLane="1o_0" arrivalPos="492.80" arrivalSpeed="10.07" duration="87.00" routeLength="989.90" waitingTime="0.00" waitingCount="0" stopTime="0.00" timeLoss="12.11" rerouteNo="0" devices="tripinfo_NS_93" vType="truck" speedFactor="0.95" vaporized=""/>
    <tripinfo id="WE_101" depart="101.00" departLane="1i_0" departPos="4.10" departSpeed="0.00" departDelay="0.00" arrival="182.00" arrivalLane="4o_0" arrivalPos="492.80" arrivalSpeed="10.76" duration="81.00" routeLength="995.70" waitingTime="0.00" waitingCount="0" stopTime="0.00" timeLoss="12.44" rerouteNo="0" devices="tripinfo_WE_101" vType="car" speedFactor="1.04" vaporized=""/>
    <tripinfo id="WE_114" depart="116.00" departLane="1i_0" departPos="4.10" departSpeed="0.00" departDelay="2.00" arrival="202.00" arrivalLane="3o_0" arrivalPos="492.80" arrivalSpeed="9.10" duration="86.00" routeLength="990.53" waitingTime="0.00" waitingCount="0" stopTime="0.00" timeLoss="7.80" rerouteNo="0" devices="tripinfo_WE_114" vType="car" speedFactor="0.90" vaporized=""/>
    <tripinfo id="WE_135" depart="135.00" departLane="1i_0" departPos="4.10" departSpeed="0.00" departDelay="0.00" arrival="205.00" arrivalLane="2o_0" arrivalPos="492.80" arrivalSpeed="12.27" duration="70.00" routeLength="995.90" waitingTime="0.00" waitingCount="0" stopTime="0.00" timeLoss="8.13" rerouteNo="0" devices="tripinfo_WE_135" vType="car" speedFactor="1.14" vaporized=""/>
    <tripinfo id="WE_115" depart="118.00" departLane="1i_0" departPos="4.10" departSpeed="0.00" departDelay="3.00" arrival="209.00" arrivalLane="4o_0" arrivalPos="492.80" arrivalSpeed="9.16" duration="91.00" routeLength="995.70" waitingTime="0.00" waitingCount="0" stopTime="0.00" timeLoss="10.22" rerouteNo="0" devices="tripinfo_WE_115" vType="car" speedFactor="0.88" vaporized=""/>
    <tripinfo id="NS_116" depart="116.00" departLane="2i_0" departPos="4.10" departSpeed="0.00" departDelay="0.00" arrival="210.00" arrivalLane="3o_0" arrivalPos="492.80" arrivalSpeed="9.14" duration="94.00" routeLength="995.70" waitingTime="0.00" waitingCount="0" stopTime="0.00" timeLoss="10.32" rerouteNo="0" devices="tripinfo_NS_116" vType="car" speedFactor="0.85" vaporized=""/>
    <tripinfo id="NS_127" depart="127.00" departLane="2i_0" departPos="4.10" departSpeed="0.00" departDelay="0.00" arrival="211.00" arrivalLane="3o_0" arrivalPos="492.80" arrivalSpeed="11.95" duration="84.00" routeLength="995.70" waitingTime="0.00" waitingCount="0" stopTime="0.00" timeLoss="19.46" rerouteNo="0" devices="tripinfo_NS_127" vType="car" speedFactor="1.10" vaporized=""/>
    <tripinfo id="WE_139" depart="139.00" departLane="1i_0" departPos="4.10" departSpeed="0.00" departDelay="0.00" arrival="220.00" arrivalLane="3o_0" arrivalPos="492.80" arrivalSpeed="10.16" duration="81.00" routeLength="990.53" waitingTime="0.00" waitingCount="0" stopTime="0.00" timeLoss="8.62" rerouteNo="0" devices="tripinfo_WE_139" vType="car" speedFactor="0.97" vaporized=""/>
    <tripinfo id="NS_128" depart="130.00" departLane="2i_0" departPos="4.10" departSpeed="0.00" departDelay="2.00" arrival="222.00" arrivalLane="3o_0" arrivalPos="492.80" arrivalSpeed="10.09" duration="92.00" routeLength="995.70" waitingTime="8.00" waitingCount="1" stopTime="0.00" timeLoss="21.53" rerouteNo="0" devices="tripinfo_NS_128" vType="car" speedFactor="1.00" vaporized=""/>
    <tripinfo id="NS_130" depart="133.00" departLane="2i_0" departPos="4.10" departSpeed="0.00" departDelay="3.00" arrival="224.00" arrivalLane="1o_0" arrivalPos="492.80" arrivalSpeed="10.37" duration="91.00" routeLength="995.90" waitingTime="6.00" waitingCount="1" stopTime="0.00" timeLoss="19.56" rerouteNo="0" devices="tripinfo_NS_130" vType="car" speedFactor="1.00" vaporized=""/>
    <tripinfo id="NS_141" depart="141.00" departLane="2i_0" departPos="4.10" departSpeed="0.00" departDelay="0.00" arrival="225.00" arrivalLane="3o_0" arrivalPos="492.80" arrivalSpeed="11.97" duration="84.00" routeLength="995.70" waitingTime="0.00" waitingCount="0" stopTime="0.00" timeLoss="17.79" rerouteNo="0" devices="tripinfo_NS_141" vType="car" speedFactor="1.08" vaporized=""/>
    <tripinfo id="NS_131" depart="136.00" departLane="2i_0" departPos="4.10" departSpeed="0.00" departDelay="5.00" arrival="231.00" arrivalLane="4o_0" arrivalPos="492.80" arrivalSpeed="9.71" duration="95.00" routeLength="990.53" waitingTime="1.00" waitingCount="1" stopTime="0.00" timeLoss="16.80" rerouteNo="0" devices="tripinfo_NS_131" vType="car" speedFactor="0.90" vaporized=""/>
    <tripinfo id="NS_160" depart="161.00" departLane="2i_0" departPos="4.10" departSpeed="0.00" departDelay="1.00" arrival="248.00" arrivalLane="3o_0" arrivalPos="492.80" arrivalSpeed="9.95" duration="87.00" routeLength="995.70" waitingTime="0.00" waitingCount="0" stopTime="0.00" timeLoss="10.94" rerouteNo="0" devices="tripinfo_NS_160" vType="car" speedFactor="0.94" vaporized=""/>
    <tripinfo id="NS_174" depart="174.00" departLane="2i_0" departPos="4.10" departSpeed="0.00" departDelay="0.00" arrival="251.00" arrivalLane="1o_0" arrivalPos="492.80" arrivalSpeed="11.13" duration="77.00" routeLength="995.90" waitingTime="0.00" waitingCount="0" stopTime="0.00" timeLoss="7.41" rerouteNo="0" devices="tripinfo_NS_174" vType="car" speedFactor="1.02" vaporized=""/>
    <tripinfo id="NS_166" depart="166.00" departLane="2i_0" departPos="4.10" departSpeed="0.00" departDelay="0.00" arrival="253.00" arrivalLane="4o_0" arrivalPos="492.80" arrivalSpeed="8.83" duration="87.00" routeLength="990.53" waitingTime="0.00" waitingCount="0" stopTime="0.00" timeLoss="9.22" rerouteNo="0" devices="tripinfo_NS_166" vType="car" speedFactor="0.91" vaporized=""/>
    <tripinfo id="WE_171" depart="171.00" departLane="1i_0" departPos="4.10" departSpeed="0.00" departDelay="0.00" arrival="256.00" arrivalLane="3o_0" arrivalPos="492.80" arrivalSpeed="10.58" duration="85.00" routeLength="990.53" waitingTime="0.00" waitingCount="0" stopTime="0.00" timeLoss="15.89" rerouteNo="0" devices="tripinfo_WE_171" vType="car" speedFactor="1.02" vaporized=""/>
    <tripinfo id="WE_167" depart="167.00" departLane="1i_0" departPos="4.10" departSpeed="0.00" departDelay="0.00" arrival="260.00" arrivalLane="4o_0" arrivalPos="492.80" arrivalSpeed="10.09" duration="93.00" routeLength="995.70" waitingTime="1.00" waitingCount="1" stopTime="0.00" timeLoss="15.72" rerouteNo="0" devices="tripinfo_WE_167" vType="car" speedFactor="0.91" vaporized=""/>
    <tripinfo id="WE_175" depart="175.00" departLane="1i_0" departPos="4.10" departSpeed="0.00" departDelay="0.00" arrival="261.00" arrivalLane="2o_0" arrivalPos="492.80" arrivalSpeed="10.61" duration="86.00" routeLength="995.90" waitingTime="0.00" waitingCount="0" stopTime="0.00" timeLoss="12.47" rerouteNo="0" devices="tripinfo_WE_175" vType="car" speedFactor="0.97" vaporized=""/>
    <tripinfo id="WE_180" depart="181.00" departLane="1i_0" departPos="4.10" departSpeed="0.00" departDelay="1.00" arrival="265.00" arrivalLane="3o_0" arrivalPos="492.80" arrivalSpeed="10.28" duration="84.00" routeLength="990.53" waitingTime="0.00" waitingCount="0" stopTime="0.00" timeLoss="8.67" rerouteNo="0" devices="tripinfo_WE_180" vType="car" speedFactor="0.94" vaporized=""/>
    <tripinfo id="NS_189" depart="189.00" departLane="2i_0" departPos="4.10" departSpeed="0.00" departDelay="0.00" arrival="265.00" arrivalLane="1o_0" arrivalPos="492.80" arrivalSpeed="10.78" duration="76.00" routeLength="995.90" waitingTime="0.00" waitingCount="0" stopTime="0.00" timeLoss="6.80" rerouteNo="0" devices="tripinfo_NS_189" vType="car" speedFactor="1.03" vaporized=""/>
    <tripinfo id="WE_183" depart="185.00" departLane="1i_0" departPos="10.10" departSpeed="0.00" departDelay="2.00" arrival="268.00" arrivalLane="3o_0" arrivalPos="492.80" arrivalSpeed="10.64" duration="83.00" routeLength="984.53" waitingTime="0.00" waitingCount="0" stopTime="0.00" timeLoss="12.25" rerouteNo="0" devices="tripinfo_WE_183" vType="truck" speedFactor="0.99" vaporized=""/>
    <tripinfo id="NS_194" depart="194.00" departLane="2i_0" departPos="4.10" departSpeed="0.00" departDelay="0.00" arrival="272.00" arrivalLane="1o_0" arrivalPos="492.80" arrivalSpeed="11.14" duration="78.00" routeLength="995.90" waitingTime="0.00" waitingCount="0" stopTime="0.00" timeLoss="7.25" rerouteNo="0" devices="tripinfo_NS_194" vType="car" speedFactor="1.01" vaporized=""/>
    <tripinfo id="WE_196" depart="196.00" departLane="1i_0" departPos="4.10" departSpeed="0.00" departDelay="0.00" arrival="272.00" arrivalLane="4o_0" arrivalPos="492.80" arrivalSpeed="10.80" duration="76.00" routeLength="995.70" waitingTime="0.00" waitingCount="0" stopTime="0.00" timeLoss="10.45" rerouteNo="0" devices="tripinfo_WE_196" vType="car" speedFactor="1.09" vaporized=""/>
    <tripinfo id="NS_201" depart="201.00" departLane="2i_0" departPos="4.10" departSpeed="0.00" departDelay="0.00" arrival="279.00" arrivalLane="3o_0" arrivalPos="492.80" arrivalSpeed="10.32" duration="78.00" routeLength="995.70" waitingTime="0.00" waitingCount="0" stopTime="0.00" timeLoss="9.53" rerouteNo="0" devices="tripinfo_NS_201" vType="car" speedFactor="1.03" vaporized=""/>
    <tripinfo id="NS_212" depart="212.00" departLane="2i_0" departPos="4.10" departSpeed="0.00" departDelay="0.00" arrival="282.00" arrivalLane="1o_0" arrivalPos="492.80" arrivalSpeed="12.01" duration="70.00" routeLength="995.90" waitingTime="0.00" waitingCount="0" stopTime="0.00" timeLoss="7.67" rerouteNo="0" devices="tripinfo_NS_212" vType="car" speedFactor="1.15" vaporized=""/>
    <tripinfo id="WE_204" depart="204.00" departLane="1i_0" departPos="4.10" departSpeed="0.00" departDelay="0.00" arrival="284.00" arrivalLane="2o_0" arrivalPos="492.80" arrivalSpeed="10.76" duration="80.00" routeLength="995.90" waitingTime="0.00" waitingCount="0" stopTime="0.00" timeLoss="8.72" rerouteNo="0" devices="tripinfo_WE_204" vType="car" speedFactor="1.00" vaporized=""/>
    <tripinfo id="WE_216" depart="216.00" departLane="1i_0" departPos="4.10" departSpeed="0.00" departDelay="0.00" arrival="296.00" arrivalLane="3o_0" arrivalPos="492.80" arrivalSpeed="10.47" duration="80.00" routeLength="990.53" waitingTime="1.00" waitingCount="1" stopTime="0.00" timeLoss="9.66" rerouteNo="0" devices="tripinfo_WE_216" vType="car" speedFactor="1.00" vaporized=""/>
    <tripinfo id="WE_214" depart="214.00" departLane="1i_0" departPos="4.10" departSpeed="0.00" departDelay="0.00" arrival="297.00" arrivalLane="4o_0" arrivalPos="492.80" arrivalSpeed="10.76" duration="83.00" routeLength="995.70" waitingTime="0.00" waitingCount="0" stopTime="0.00" timeLoss="10.36" rerouteNo="0" devices="tripinfo_WE_214" vType="car" speedFactor="0.98" vaporized=""/>
    <tripinfo id="NS_224" depart="224.00" departLane="2i_0" departPos="4.10" departSpeed="0.00" departDelay="0.00" arrival="301.00" arrivalLane="4o_0" arrivalPos="492.80" arrivalSpeed="10.50" duration="77.00" routeLength="990.53" waitingTime="0.00" waitingCount="0" stopTime="0.00" timeLoss="7.87" rerouteNo="0" devices="tripinfo_NS_224" vType="car" speedFactor="1.02" vaporized=""/>
    <tripinfo id="NS_234" depart="234.00" departLane="2i_0" departPos="4.10" departSpeed="0.00" departDelay="0.00" arrival="308.00" arrivalLane="1o_0" arrivalPos="492.80" arrivalSpeed="11.86" duration="74.00" routeLength="995.90" waitingTime="0.00" waitingCount="0" stopTime="0.00" timeLoss="8.72" rerouteNo="0" devices="tripinfo_NS_234" vType="car" speedFactor="1.09" vaporized=""/>
    <tripinfo id="WE_227" depart="227.00" departLane="1i_0" departPos="4.10" departSpeed="0.00" departDelay="0.00" arrival="315.00" arrivalLane="3o_0" arrivalPos="492.80" arrivalSpeed="9.57" duration="88.00" routeLength="990.53" waitingTime="0.00" waitingCount="0" stopTime="0.00" timeLoss="8.65" rerouteNo="0" devices="tripinfo_WE_227" vType="car" speedFactor="0.89" vaporized=""/>
    <tripinfo id="NS_237" depart="237.00" departLane="2i_0" departPos="4.10" departSpeed="0.00" departDelay="0.00" arrival="315.00" arrivalLane="1o_0" arrivalPos="492.80" arrivalSpeed="11.14" duration="78.00" routeLength="995.90" waitingTime="0.00" waitingCount="0" stopTime="0.00" timeLoss="7.97" rerouteNo="0" devices="tripinfo_NS_237" vType="car" speedFactor="1.01" vaporized=""/>
    <tripinfo id="WE_231" depart="231.00" departLane="1i_0" departPos="4.10" departSpeed="0.00" departDelay="0.00" arrival="325.00" arrivalLane="3o_0" arrivalPos="492.80" arrivalSpeed="8.81" duration="94.00" routeLength="990.53" waitingTime="0.00" waitingCount="0" stopTime="0.00" timeLoss="9.27" rerouteNo="0" devices="tripinfo_WE_231" vType="car" speedFactor="0.83" vaporized=""/>
    <tripinfo id="NS_251" depart="251.00" departLane="2i_0" departPos="4.10" departSpeed="0.00" departDelay="0.00" arrival="340.00" arrivalLane="4o_0" arrivalPos="492.80" arrivalSpeed="8.77" duration="89.00" routeLength="990.53" waitingTime="0.00" waitingCount="0" stopTime="0.00" timeLoss="9.81" rerouteNo="0" devices="tripinfo_NS_251" vType="car" speedFactor="0.89" vaporized=""/>
    <tripinfo id="WE_261" depart="261.00" departLane="1i_0" departPos="4.10" departSpeed="0.00" departDelay="0.00" arrival="342.00" arrivalLane="4o_0" arrivalPos="492.80" arrivalSpeed="11.26" duration="81.00" routeLength="995.70" waitingTime="0.00" waitingCount="0" stopTime="0.00" timeLoss="11.93" rerouteNo="0" devices="tripinfo_WE_261" vType="car" speedFactor="1.03" vaporized=""/>
    <tripinfo id="NS_269" depart="269.00" departLane="2i_0" departPos="4.10" departSpeed="0.00" departDelay="0.00" arrival="351.00" arrivalLane="1o_0" arrivalPos="492.80" arrivalSpeed="9.59" duration="82.00" routeLength="995.90" waitingTime="0.00" waitingCount="0" stopTime="0.00" timeLoss="8.38" rerouteNo="0" devices="tripinfo_NS_269" vType="car" speedFactor="0.96" vaporized=""/>
    <tripinfo id="WE_277" depart="277.00" departLane="1i_0" departPos="4.10" departSpeed="0.00" departDelay="0.00" arrival="355.00" arrivalLane="3o_0" arrivalPos="492.80" arrivalSpeed="10.31" duration="78.00" routeLength="990.53" waitingTime="0.00" waitingCount="0" stopTime="0.00" timeLoss="8.38" rerouteNo="0" devices="tripinfo_WE_277" vType="car" speedFactor="1.01" vaporized=""/>
    <tripinfo id="NS_270" depart="272.00" departLane="2i_0" departPos="4.10" departSpeed="0.00" departDelay="2.00" arrival="356.00" arrivalLane="4o_0" arrivalPos="492.80" arrivalSpeed="10.26" duration="84.00" routeLength="990.53" waitingTime="0.00" waitingCount="0" stopTime="0.00" timeLoss="8.03" rerouteNo="0" devices="tripinfo_NS_270" vType="car" speedFactor="0.93" vaporized=""/>
    <tripinfo id="WE_294" depart="294.00" departLane="1i_0" departPos="4.10" departSpeed="0.00" departDelay="0.00" arrival="362.00" arrivalLane="3o_0" arrivalPos="492.80" arrivalSpeed="11.87" duration="68.00" routeLength="990.53" waitingTime="0.00" waitingCount="0" stopTime="0.00" timeLoss="8.15" rerouteNo="0" devices="tripinfo_WE_294" vType="car" speedFactor="1.18" vaporized=""/>
    <tripinfo id="NS_298" depart="298.00" departLane="2i_0" departPos="4.10" departSpeed="0.00" departDelay="0.00" arrival="377.00" arrivalLane="4o_0" arrivalPos="492.80" arrivalSpeed="11.09" duration="79.00" routeLength="990.53" waitingTime="0.00" waitingCount="0" stopTime="0.00" timeLoss="8.40" rerouteNo="0" devices="tripinfo_NS_298" vType="car" speedFactor="1.00" vaporized=""/>
    <tripinfo id="NS_299" depart="300.00" departLane="2i_0" departPos="4.10" departSpeed="0.00" departDelay="1.00" arrival="380.00" arrivalLane="1o_0" arrivalPos="492.80" arrivalSpeed="10.69" duration="80.00" routeLength="995.90" waitingTime="0.00" waitingCount="0" stopTime="0.00" timeLoss="8.24" rerouteNo="0" devices="tripinfo_NS_299" vType="car" speedFactor="0.99" vaporized=""/>
    <tripinfo id="WE_308" depart="308.00" departLane="1i_0" departPos="4.10" departSpeed="0.00" departDelay="0.00" arrival="384.00" arrivalLane="2o_0" arrivalPos="492.80" arrivalSpeed="10.61" duration="76.00" routeLength="995.90" waitingTime="0.00" waitingCount="0" stopTime="0.00" timeLoss="8.92" rerouteNo="0" devices="tripinfo_WE_308" vType="car" speedFactor="1.06" vaporized=""/>
    <tripinfo id="NS_306" depart="306.00" departLane="2i_0" departPos="4.10" departSpeed="0.00" departDelay="0.00" arrival="388.00" arrivalLane="3o_0" arrivalPos="492.80" arrivalSpeed="10.53" duration="82.00" routeLength="995.70" waitingTime="0.00" waitingCount="0" stopTime="0.00" timeLoss="13.24" rerouteNo="0" devices="tripinfo_NS_306" vType="car" speedFactor="1.03" vaporized=""/>
    <tripinfo id="WE_315" depart="315.00" departLane="1i_0" departPos="4.10" departSpeed="0.00" departDelay="0.00" arrival="391.00" arrivalLane="2o_0" arrivalPos="492.80" arrivalSpeed="10.25" duration="76.00" routeLength="995.90" waitingTime="0.00" waitingCount="0" stopTime="0.00" timeLoss="7.40" rerouteNo="0" devices="tripinfo_WE_315" vType="car" speedFactor="1.03" vaporized=""/>
    <tripinfo id="WE_328" depart="328.00" departLane="1i_0" departPos="4.10" departSpeed="0.00" departDelay="0.00" arrival="405.00" arrivalLane="3o_0" arrivalPos="492.80" arrivalSpeed="10.31" duration="77.00" routeLength="990.53" waitingTime="0.00" waitingCount="0" stopTime="0.00" timeLoss="8.79" rerouteNo="0" devices="tripinfo_WE_328" vType="car" speedFactor="1.03" vaporized=""/>
    <tripinfo id="EW_29" depart="31.00" departLane="4i_0" departPos="10.10" departSpeed="0.00" departDelay="2.00" arrival="419.00" arrivalLane="1o_0" arrivalPos="492.80" arrivalSpeed="10.99" duration="388.00" routeLength="975.50" waitingTime="301.00" waitingCount="1" stopTime="0.00" timeLoss="319.24" rerouteNo="0" devices="tripinfo_EW_29" vType="truck" speedFactor="1.00" vaporized=""/>
    <tripinfo id="WE_346" depart="346.00" departLane="1i_0" departPos="4.10" departSpeed="0.00" departDelay="0.00" arrival="422.00" arrivalLane="3o_0" arrivalPos="492.80" arrivalSpeed="10.31" duration="76.00" routeLength="990.53" waitingTime="0.00" waitingCount="0" stopTime="0.00" timeLoss="7.76" rerouteNo="0" devices="tripinfo_WE_346" vType="car" speedFactor="1.04" vaporized=""/>
    <tripinfo id="NS_307" depart="308.00" departLane="2i_0" departPos="4.10" departSpeed="0.00" departDelay="1.00" arrival="427.00" arrivalLane="3o_0" arrivalPos="492.80" arrivalSpeed="10.27" duration="119.00" routeLength="995.70" waitingTime="33.00" waitingCount="2" stopTime="0.00" timeLoss="49.68" rerouteNo="0" devices="tripinfo_NS_307" vType="car" speedFactor="1.02" vaporized=""/>
    <tripinfo id="NS_350" depart="350.00" departLane="2i_0" departPos="4.10" departSpeed="0.00" departDelay="0.00" arrival="429.00" arrivalLane="1o_0" arrivalPos="492.80" arrivalSpeed="10.64" duration="79.00" routeLength="995.90" waitingTime="0.00" waitingCount="0" stopTime="0.00" timeLoss="9.03" rerouteNo="0" devices="tripinfo_NS_350" vType="car" speedFactor="1.01" vaporized=""/>
    <tripinfo id="SN_50" depart="50.00" departLane="3i_0" departPos="4.10" departSpeed="0.00" departDelay="0.00" arrival="431.00" arrivalLane="2o_0" arrivalPos="492.80" arrivalSpeed="11.07" duration="381.00" routeLength="981.50" waitingTime="301.00" waitingCount="1" stopTime="0.00" timeLoss="312.37" rerouteNo="0" devices="tripinfo_SN_50" vType="car" speedFactor="1.02" vaporized=""/>
    <tripinfo id="NS_355" depart="355.00" departLane="2i_0" departPos="4.10" departSpeed="0.00" departDelay="0.00" arrival="434.00" arrivalLane="3o_0" arrivalPos="492.80" arrivalSpeed="11.00" duration="79.00" routeLength="995.70" waitingTime="0.00" waitingCount="0" stopTime="0.00" timeLoss="9.39" rerouteNo="0" devices="tripinfo_NS_355" vType="car" speedFactor="1.02" vaporized=""/>