<?xml version="1.0" encoding="UTF-8"?>

<!-- generated on 2024-05-05 22:07:05 by Eclipse SUMO sumo Version 1.19.0
<configuration xmlns:xsi="http://www.w3.org/2001/XMLSchema-instance" xsi:noNamespaceSchemaLocation="http://sumo.dlr.de/xsd/sumoConfiguration.xsd">

    <input>
        <net-file value="twoone.net.xml"/>
        <route-files value="route_gen.rou.xml"/>
    </input>

    <output>
        <tripinfo-output value="tripinfo_epi202.xml"/>
    </output>

    <report>
        <no-warnings value="true"/>
    </report>

    <traci_server>
        <remote-port value="36627"/>
    </traci_server>

</configuration>
-->

<tripinfos xmlns:xsi="http://www.w3.org/2001/XMLSchema-instance" xsi:noNamespaceSchemaLocation="http://sumo.dlr.de/xsd/tripinfo_file.xsd">
    <tripinfo id="WE_1" depart="1.00" departLane="1i_0" departPos="4.10" departSpeed="0.00" departDelay="0.00" arrival="75.00" arrivalLane="3o_0" arrivalPos="492.80" arrivalSpeed="11.37" duration="74.00" routeLength="990.53" waitingTime="0.00" waitingCount="0" stopTime="0.00" timeLoss="7.03" rerouteNo="0" devices="tripinfo_WE_1" vType="car" speedFactor="1.06" vaporized=""/>
    <tripinfo id="NS_1" depart="1.00" departLane="2i_0" departPos="4.10" departSpeed="0.00" departDelay="0.00" arrival="85.00" arrivalLane="4o_0" arrivalPos="492.80" arrivalSpeed="10.02" duration="84.00" routeLength="990.53" waitingTime="0.00" waitingCount="0" stopTime="0.00" timeLoss="8.56" rerouteNo="0" devices="tripinfo_NS_1" vType="car" speedFactor="0.94" vaporized=""/>
    <tripinfo id="WE_4" depart="5.00" departLane="1i_0" departPos="10.10" departSpeed="0.00" departDelay="1.00" arrival="87.00" arrivalLane="2o_0" arrivalPos="492.80" arrivalSpeed="11.41" duration="82.00" routeLength="989.90" waitingTime="0.00" waitingCount="0" stopTime="0.00" timeLoss="14.22" rerouteNo="0" devices="tripinfo_WE_4" vType="truck" speedFactor="1.04" vaporized=""/>
    <tripinfo id="SN_3" depart="3.00" departLane="3i_0" departPos="4.10" departSpeed="0.00" departDelay="0.00" arrival="88.00" arrivalLane="1o_0" arrivalPos="492.80" arrivalSpeed="9.96" duration="85.00" routeLength="995.70" waitingTime="2.00" waitingCount="1" stopTime="0.00" timeLoss="15.05" rerouteNo="0" devices="tripinfo_SN_3" vType="car" speedFactor="1.01" vaporized=""/>
    <tripinfo id="WE_5" depart="9.00" departLane="1i_0" departPos="4.10" departSpeed="0.00" departDelay="4.00" arrival="91.00" arrivalLane="2o_0" arrivalPos="492.80" arrivalSpeed="11.31" duration="82.00" routeLength="995.90" waitingTime="0.00" waitingCount="0" stopTime="0.00" timeLoss="13.45" rerouteNo="0" devices="tripinfo_WE_5" vType="car" speedFactor="1.03" vaporized=""/>
    <tripinfo id="WE_10" depart="15.00" departLane="1i_0" departPos="4.10" departSpeed="0.00" departDelay="5.00" arrival="95.00" arrivalLane="2o_0" arrivalPos="492.80" arrivalSpeed="10.94" duration="80.00" routeLength="995.90" waitingTime="0.00" waitingCount="0" stopTime="0.00" timeLoss="12.48" rerouteNo="0" devices="tripinfo_WE_10" vType="car" speedFactor="1.05" vaporized=""/>
    <tripinfo id="WE_7" depart="12.00" departLane="1i_0" departPos="4.10" departSpeed="0.00" departDelay="5.00" arrival="106.00" arrivalLane="3o_0" arrivalPos="492.80" arrivalSpeed="9.15" duration="94.00" routeLength="990.53" waitingTime="0.00" waitingCount="0" stopTime="0.00" timeLoss="8.81" rerouteNo="0" devices="tripinfo_WE_7" vType="car" speedFactor="0.83" vaporized=""/>
    <tripinfo id="WE_27" depart="27.00" departLane="1i_0" departPos="4.10" departSpeed="0.00" departDelay="0.00" arrival="108.00" arrivalLane="3o_0" arrivalPos="492.80" arrivalSpeed="11.59" duration="81.00" routeLength="990.53" waitingTime="0.00" waitingCount="0" stopTime="0.00" timeLoss="15.75" rerouteNo="0" devices="tripinfo_WE_27" vType="car" speedFactor="1.09" vaporized=""/>
    <tripinfo id="NS_22" depart="22.00" departLane="2i_0" departPos="4.10" departSpeed="0.00" departDelay="0.00" arrival="109.00" arrivalLane="3o_0" arrivalPos="492.80" arrivalSpeed="9.98" duration="87.00" routeLength="995.70" waitingTime="0.00" waitingCount="0" stopTime="0.00" timeLoss="11.75" rerouteNo="0" devices="tripinfo_NS_22" vType="car" speedFactor="0.94" vaporized=""/>
    <tripinfo id="NS_36" depart="36.00" departLane="2i_0" departPos="4.10" departSpeed="0.00" departDelay="0.00" arrival="109.00" arrivalLane="4o_0" arrivalPos="492.80" arrivalSpeed="11.22" duration="73.00" routeLength="990.53" waitingTime="1.00" waitingCount="1" stopTime="0.00" timeLoss="10.34" rerouteNo="0" devices="tripinfo_NS_36" vType="car" speedFactor="1.12" vaporized=""/>
    <tripinfo id="SN_16" depart="16.00" departLane="3i_0" departPos="4.10" departSpeed="0.00" departDelay="0.00" arrival="110.00" arrivalLane="2o_0" arrivalPos="492.80" arrivalSpeed="9.23" duration="94.00" routeLength="990.53" waitingTime="1.00" waitingCount="1" stopTime="0.00" timeLoss="14.24" rerouteNo="0" devices="tripinfo_SN_16" vType="car" speedFactor="0.89" vaporized=""/>
    <tripinfo id="WE_36" depart="36.00" departLane="1i_0" departPos="4.10" departSpeed="0.00" departDelay="0.00" arrival="114.00" arrivalLane="4o_0" arrivalPos="492.80" arrivalSpeed="11.28" duration="78.00" routeLength="995.70" waitingTime="0.00" waitingCount="0" stopTime="0.00" timeLoss="9.70" rerouteNo="0" devices="tripinfo_WE_36" vType="car" speedFactor="1.05" vaporized=""/>
    <tripinfo id="SN_31" depart="31.00" departLane="3i_0" departPos="4.10" departSpeed="0.00" departDelay="0.00" arrival="121.00" arrivalLane="4o_0" arrivalPos="492.80" arrivalSpeed="10.33" duration="90.00" routeLength="995.90" waitingTime="3.00" waitingCount="2" stopTime="0.00" timeLoss="20.98" rerouteNo="0" devices="tripinfo_SN_31" vType="car" speedFactor="1.03" vaporized=""/>
    <tripinfo id="SN_25" depart="25.00" departLane="3i_0" departPos="4.10" departSpeed="0.00" departDelay="0.00" arrival="122.00" arrivalLane="2o_0" arrivalPos="492.80" arrivalSpeed="8.88" duration="97.00" routeLength="990.53" waitingTime="1.00" waitingCount="1" stopTime="0.00" timeLoss="14.27" rerouteNo="0" devices="tripinfo_SN_25" vType="car" speedFactor="0.86" vaporized=""/>
    <tripinfo id="WE_40" depart="40.00" departLane="1i_0" departPos="4.10" departSpeed="0.00" departDelay="0.00" arrival="125.00" arrivalLane="3o_0" arrivalPos="492.80" arrivalSpeed="10.07" duration="85.00" routeLength="990.53" waitingTime="0.00" waitingCount="0" stopTime="0.00" timeLoss="8.65" rerouteNo="0" devices="tripinfo_WE_40" vType="car" speedFactor="0.93" vaporized=""/>
    <tripinfo id="SN_36" depart="36.00" departLane="3i_0" departPos="4.10" departSpeed="0.00" departDelay="0.00" arrival="127.00" arrivalLane="1o_0" arrivalPos="492.80" arrivalSpeed="9.94" duration="91.00" routeLength="995.70" waitingTime="2.00" waitingCount="2" stopTime="0.00" timeLoss="19.70" rerouteNo="0" devices="tripinfo_SN_36" vType="car" speedFactor="0.99" vaporized=""/>
    <tripinfo id="WE_48" depart="48.00" departLane="1i_0" departPos="4.10" departSpeed="0.00" departDelay="0.00" arrival="127.00" arrivalLane="3o_0" arrivalPos="492.80" arrivalSpeed="12.33" duration="79.00" routeLength="990.53" waitingTime="0.00" waitingCount="0" stopTime="0.00" timeLoss="17.60" rerouteNo="0" devices="tripinfo_WE_48" vType="car" speedFactor="1.16" vaporized=""/>
    <tripinfo id="WE_51" depart="51.00" departLane="1i_0" departPos="4.10" departSpeed="0.00" departDelay="0.00" arrival="129.00" arrivalLane="3o_0" arrivalPos="492.80" arrivalSpeed="10.68" duration="78.00" routeLength="990.53" waitingTime="0.00" waitingCount="0" stopTime="0.00" timeLoss="8.24" rerouteNo="0" devices="tripinfo_WE_51" vType="car" speedFactor="1.01" vaporized=""/>
    <tripinfo id="WE_45" depart="45.00" departLane="1i_0" departPos="4.10" departSpeed="0.00" departDelay="0.00" arrival="130.00" arrivalLane="2o_0" arrivalPos="492.80" arrivalSpeed="10.07" duration="85.00" routeLength="995.90" waitingTime="0.00" waitingCount="0" stopTime="0.00" timeLoss="8.89" rerouteNo="0" devices="tripinfo_WE_45" vType="car" speedFactor="0.94" vaporized=""/>
    <tripinfo id="NS_41" depart="41.00" departLane="2i_0" departPos="4.10" departSpeed="0.00" departDelay="0.00" arrival="132.00" arrivalLane="4o_0" arrivalPos="492.80" arrivalSpeed="8.86" duration="91.00" routeLength="990.53" waitingTime="0.00" waitingCount="0" stopTime="0.00" timeLoss="10.10" rerouteNo="0" devices="tripinfo_NS_41" vType="car" speedFactor="0.88" vaporized=""/>
    <tripinfo id="NS_42" depart="44.00" departLane="2i_0" departPos="4.10" departSpeed="0.00" departDelay="2.00" arrival="133.00" arrivalLane="1o_0" arrivalPos="492.80" arrivalSpeed="9.63" duration="89.00" routeLength="995.90" waitingTime="0.00" waitingCount="0" stopTime="0.00" timeLoss="13.68" rerouteNo="0" devices="tripinfo_NS_42" vType="car" speedFactor="0.94" vaporized=""/>
    <tripinfo id="NS_57" depart="57.00" departLane="2i_0" departPos="4.10" departSpeed="0.00" departDelay="0.00" arrival="140.00" arrivalLane="4o_0" arrivalPos="492.80" arrivalSpeed="9.54" duration="83.00" routeLength="990.53" waitingTime="0.00" waitingCount="0" stopTime="0.00" timeLoss="8.21" rerouteNo="0" devices="tripinfo_NS_57" vType="car" speedFactor="0.95" vaporized=""/>
    <tripinfo id="SN_53" depart="53.00" departLane="3i_0" departPos="4.10" departSpeed="0.00" departDelay="0.00" arrival="141.00" arrivalLane="2o_0" arrivalPos="492.80" arrivalSpeed="10.80" duration="88.00" routeLength="990.53" waitingTime="1.00" waitingCount="1" stopTime="0.00" timeLoss="15.19" rerouteNo="0" devices="tripinfo_SN_53" vType="car" speedFactor="0.97" vaporized=""/>
    <tripinfo id="NS_54" depart="54.00" departLane="2i_0" departPos="4.10" departSpeed="0.00" departDelay="0.00" arrival="142.00" arrivalLane="1o_0" arrivalPos="492.80" arrivalSpeed="9.02" duration="88.00" routeLength="995.90" waitingTime="0.00" waitingCount="0" stopTime="0.00" timeLoss="7.81" rerouteNo="0" devices="tripinfo_NS_54" vType="car" speedFactor="0.89" vaporized=""/>
    <tripinfo id="EW_50" depart="50.00" departLane="4i_0" departPos="4.10" departSpeed="0.00" departDelay="0.00" arrival="143.00" arrivalLane="1o_0" arrivalPos="492.80" arrivalSpeed="10.79" duration="93.00" routeLength="990.53" waitingTime="6.00" waitingCount="1" stopTime="0.00" timeLoss="23.81" rerouteNo="0" devices="tripinfo_EW_50" vType="car" speedFactor="1.02" vaporized=""/>
    <tripinfo id="WE_56" depart="56.00" departLane="1i_0" departPos="10.10" departSpeed="0.00" departDelay="0.00" arrival="145.00" arrivalLane="3o_0" arrivalPos="492.80" arrivalSpeed="9.70" duration="89.00" routeLength="984.53" waitingTime="0.00" waitingCount="0" stopTime="0.00" timeLoss="11.48" rerouteNo="0" devices="tripinfo_WE_56" vType="truck" speedFactor="0.91" vaporized=""/>
    <tripinfo id="WE_57" depart="60.00" departLane="1i_0" departPos="4.10" departSpeed="0.00" departDelay="3.00" arrival="148.00" arrivalLane="3o_0" arrivalPos="492.80" arrivalSpeed="9.89" duration="88.00" routeLength="990.53" waitingTime="0.00" waitingCount="0" stopTime="0.00" timeLoss="11.31" rerouteNo="0" devices="tripinfo_WE_57" vType="car" speedFactor="0.92" vaporized=""/>
    <tripinfo id="NS_60" depart="61.00" departLane="2i_0" departPos="10.10" departSpeed="0.00" departDelay="1.00" arrival="151.00" arrivalLane="3o_0" arrivalPos="492.80" arrivalSpeed="11.82" duration="90.00" routeLength="989.70" waitingTime="0.00" waitingCount="0" stopTime="0.00" timeLoss="22.59" rerouteNo="0" devices="tripinfo_NS_60" vType="truck" speedFactor="1.07" vaporized=""/>
    <tripinfo id="NS_70" depart="70.00" departLane="2i_0" departPos="4.10" departSpeed="0.00" departDelay="0.00" arrival="153.00" arrivalLane="3o_0" arrivalPos="492.80" arrivalSpeed="12.24" duration="83.00" routeLength="995.70" waitingTime="0.00" waitingCount="0" stopTime="0.00" timeLoss="22.33" rerouteNo="0" devices="tripinfo_NS_70" vType="car" speedFactor="1.17" vaporized=""/>
    <tripinfo id="NS_72" depart="72.00" departLane="2i_0" departPos="4.10" departSpeed="0.00" departDelay="0.00" arrival="155.00" arrivalLane="3o_0" arrivalPos="492.80" arrivalSpeed="10.11" duration="83.00" routeLength="995.70" waitingTime="0.00" waitingCount="0" stopTime="0.00" timeLoss="11.94" rerouteNo="0" devices="tripinfo_NS_72" vType="car" speedFactor="0.99" vaporized=""/>
    <tripinfo id="NS_73" depart="75.00" departLane="2i_0" departPos="4.10" departSpeed="0.00" departDelay="2.00" arrival="157.00" arrivalLane="3o_0" arrivalPos="492.80" arrivalSpeed="10.99" duration="82.00" routeLength="995.70" waitingTime="0.00" waitingCount="0" stopTime="0.00" timeLoss="12.39" rerouteNo="0" devices="tripinfo_NS_73" vType="car" speedFactor="1.02" vaporized=""/>
    <tripinfo id="NS_95" depart="95.00" departLane="2i_0" departPos="4.10" departSpeed="0.00" departDelay="0.00" arrival="168.00" arrivalLane="1o_0" arrivalPos="492.80" arrivalSpeed="10.91" duration="73.00" routeLength="995.90" waitingTime="0.00" waitingCount="0" stopTime="0.00" timeLoss="7.66" rerouteNo="0" devices="tripinfo_NS_95" vType="car" speedFactor="1.09" vaporized=""/>
    <tripinfo id="NS_104" depart="104.00" departLane="2i_0" departPos="4.10" departSpeed="0.00" departDelay="0.00" arrival="183.00" arrivalLane="4o_0" arrivalPos="492.80" arrivalSpeed="10.82" duration="79.00" routeLength="990.53" waitingTime="0.00" waitingCount="0" stopTime="0.00" timeLoss="8.18" rerouteNo="0" devices="tripinfo_NS_104" vType="car" speedFactor="1.00" vaporized=""/>
    <tripinfo id="NS_117" depart="117.00" departLane="2i_0" departPos="4.10" departSpeed="0.00" departDelay="0.00" arrival="192.00" arrivalLane="3o_0" arrivalPos="492.80" arrivalSpeed="11.95" duration="75.00" routeLength="995.70" waitingTime="0.00" waitingCount="0" stopTime="0.00" timeLoss="10.32" rerouteNo="0" devices="tripinfo_NS_117" vType="car" speedFactor="1.10" vaporized=""/>
    <tripinfo id="NS_106" depart="107.00" departLane="2i_0" departPos="4.10" departSpeed="0.00" departDelay="1.00" arrival="196.00" arrivalLane="1o_0" arrivalPos="492.80" arrivalSpeed="9.51" duration="89.00" routeLength="995.90" waitingTime="0.00" waitingCount="0" stopTime="0.00" timeLoss="8.48" rerouteNo="0" devices="tripinfo_NS_106" vType="car" speedFactor="0.88" vaporized=""/>
    <tripinfo id="NS_124" depart="124.00" departLane="2i_0" departPos="4.10" departSpeed="0.00" departDelay="0.00" arrival="202.00" arrivalLane="4o_0" arrivalPos="492.80" arrivalSpeed="10.71" duration="78.00" routeLength="990.53" waitingTime="0.00" waitingCount="0" stopTime="0.00" timeLoss="8.86" rerouteNo="0" devices="tripinfo_NS_124" vType="car" speedFactor="1.02" vaporized=""/>
    <tripinfo id="NS_128" depart="130.00" departLane="2i_0" departPos="4.10" departSpeed="0.00" departDelay="2.00" arrival="203.00" arrivalLane="1o_0" arrivalPos="492.80" arrivalSpeed="11.61" duration="73.00" routeLength="995.90" waitingTime="0.00" waitingCount="0" stopTime="0.00" timeLoss="7.66" rerouteNo="0" devices="tripinfo_NS_128" vType="car" speedFactor="1.08" vaporized=""/>
    <tripinfo id="WE_82" depart="82.00" departLane="1i_0" departPos="10.10" departSpeed="0.00" departDelay="0.00" arrival="215.00" arrivalLane="4o_0" arrivalPos="492.80" arrivalSpeed="10.90" duration="133.00" routeLength="989.70" waitingTime="40.00" waitingCount="1" stopTime="0.00" timeLoss="61.00" rerouteNo="0" devices="tripinfo_WE_82" vType="truck" speedFactor="0.99" vaporized=""/>
    <tripinfo id="WE_121" depart="121.00" departLane="1i_0" departPos="4.10" departSpeed="0.00" departDelay="0.00" arrival="218.00" arrivalLane="4o_0" arrivalPos="492.80" arrivalSpeed="10.18" duration="97.00" routeLength="995.70" waitingTime="9.00" waitingCount="1" stopTime="0.00" timeLoss="25.60" rerouteNo="0" devices="tripinfo_WE_121" vType="car" speedFactor="1.00" vaporized=""/>
    <tripinfo id="WE_105" depart="105.00" departLane="1i_0" departPos="4.10" departSpeed="0.00" departDelay="0.00" arrival="221.00" arrivalLane="2o_0" arrivalPos="492.80" arrivalSpeed="9.29" duration="116.00" routeLength="995.90" waitingTime="23.00" waitingCount="1" stopTime="0.00" timeLoss="37.69" rerouteNo="0" devices="tripinfo_WE_105" vType="car" speedFactor="0.90" vaporized=""/>
    <tripinfo id="WE_133" depart="133.00" departLane="1i_0" departPos="10.10" departSpeed="0.00" departDelay="0.00" arrival="224.00" arrivalLane="2o_0" arrivalPos="492.80" arrivalSpeed="10.66" duration="91.00" routeLength="989.90" waitingTime="0.00" waitingCount="0" stopTime="0.00" timeLoss="19.60" rerouteNo="0" devices="tripinfo_WE_133" vType="truck" speedFactor="0.99" vaporized=""/>
    <tripinfo id="WE_122" depart="123.00" departLane="1i_0" departPos="4.10" departSpeed="0.00" departDelay="1.00" arrival="225.00" arrivalLane="4o_0" arrivalPos="492.80" arrivalSpeed="9.15" duration="102.00" routeLength="995.70" waitingTime="5.00" waitingCount="1" stopTime="0.00" timeLoss="23.06" rerouteNo="0" devices="tripinfo_WE_122" vType="car" speedFactor="0.90" vaporized=""/>
    <tripinfo id="WE_126" depart="127.00" departLane="1i_0" departPos="4.10" departSpeed="0.00" departDelay="1.00" arrival="227.00" arrivalLane="4o_0" arrivalPos="492.80" arrivalSpeed="9.68" duration="100.00" routeLength="995.70" waitingTime="4.00" waitingCount="1" stopTime="0.00" timeLoss="26.60" rerouteNo="0" devices="tripinfo_WE_126" vType="car" speedFactor="0.97" vaporized=""/>
    <tripinfo id="WE_143" depart="143.00" departLane="1i_0" departPos="10.10" departSpeed="0.00" departDelay="0.00" arrival="229.00" arrivalLane="2o_0" arrivalPos="492.80" arrivalSpeed="10.51" duration="86.00" routeLength="989.90" waitingTime="0.00" waitingCount="0" stopTime="0.00" timeLoss="12.03" rerouteNo="0" devices="tripinfo_WE_143" vType="truck" speedFactor="0.95" vaporized=""/>
    <tripinfo id="WE_149" depart="149.00" departLane="1i_0" departPos="10.10" departSpeed="0.00" departDelay="0.00" arrival="230.00" arrivalLane="3o_0" arrivalPos="492.80" arrivalSpeed="10.84" duration="81.00" routeLength="984.53" waitingTime="0.00" waitingCount="0" stopTime="0.00" timeLoss="12.25" rerouteNo="0" devices="tripinfo_WE_149" vType="truck" speedFactor="1.02" vaporized=""/>
    <tripinfo id="NS_163" depart="163.00" departLane="2i_0" departPos="4.10" departSpeed="0.00" departDelay="0.00" arrival="246.00" arrivalLane="3o_0" arrivalPos="492.80" arrivalSpeed="10.37" duration="83.00" routeLength="995.70" waitingTime="0.00" waitingCount="0" stopTime="0.00" timeLoss="9.50" rerouteNo="0" devices="tripinfo_NS_163" vType="car" speedFactor="0.97" vaporized=""/>
    <tripinfo id="NS_167" depart="167.00" departLane="2i_0" departPos="4.10" departSpeed="0.00" departDelay="0.00" arrival="252.00" arrivalLane="3o_0" arrivalPos="492.80" arrivalSpeed="9.88" duration="85.00" routeLength="995.70" waitingTime="0.00" waitingCount="0" stopTime="0.00" timeLoss="9.74" rerouteNo="0" devices="tripinfo_NS_167" vType="car" speedFactor="0.94" vaporized=""/>
    <tripinfo id="NS_172" depart="172.00" departLane="2i_0" departPos="4.10" departSpeed="0.00" departDelay="0.00" arrival="255.00" arrivalLane="1o_0" arrivalPos="492.80" arrivalSpeed="9.95" duration="83.00" routeLength="995.90" waitingTime="0.00" waitingCount="0" stopTime="0.00" timeLoss="8.72" rerouteNo="0" devices="tripinfo_NS_172" vType="car" speedFactor="0.96" vaporized=""/>
    <tripinfo id="WE_176" depart="176.00" departLane="1i_0" departPos="4.10" departSpeed="0.00" departDelay="0.00" arrival="256.00" arrivalLane="2o_0" arrivalPos="492.80" arrivalSpeed="9.79" duration="80.00" routeLength="995.90" waitingTime="0.00" waitingCount="0" stopTime="0.00" timeLoss="8.29" rerouteNo="0" devices="tripinfo_WE_176" vType="car" speedFactor="0.98" vaporized=""/>
    <tripinfo id="WE_183" depart="183.00" departLane="1i_0" departPos="4.10" departSpeed="0.00" departDelay="0.00" arrival="258.00" arrivalLane="2o_0" arrivalPos="492.80" arrivalSpeed="11.19" duration="75.00" routeLength="995.90" waitingTime="0.00" waitingCount="0" stopTime="0.00" timeLoss="9.85" rerouteNo="0" devices="tripinfo_WE_183" vType="car" speedFactor="1.09" vaporized=""/>
    <tripinfo id="NS_179" depart="179.00" departLane="2i_0" departPos="4.10" departSpeed="0.00" departDelay="0.00" arrival="259.00" arrivalLane="1o_0" arrivalPos="492.80" arrivalSpeed="10.47" duration="80.00" routeLength="995.90" waitingTime="0.00" waitingCount="0" stopTime="0.00" timeLoss="7.74" rerouteNo="0" devices="tripinfo_NS_179" vType="car" speedFactor="0.98" vaporized=""/>
    <tripinfo id="NS_187" depart="187.00" departLane="2i_0" departPos="4.10" departSpeed="0.00" departDelay="0.00" arrival="265.00" arrivalLane="1o_0" arrivalPos="492.80" arrivalSpeed="11.22" duration="78.00" routeLength="995.90" waitingTime="0.00" waitingCount="0" stopTime="0.00" timeLoss="8.21" rerouteNo="0" devices="tripinfo_NS_187" vType="car" speedFactor="1.02" vaporized=""/>
    <tripinfo id="NS_189" depart="190.00" departLane="2i_0" departPos="4.10" departSpeed="0.00" departDelay="1.00" arrival="267.00" arrivalLane="1o_0" arrivalPos="492.80" arrivalSpeed="11.48" duration="77.00" routeLength="995.90" waitingTime="0.00" waitingCount="0" stopTime="0.00" timeLoss="14.71" rerouteNo="0" devices="tripinfo_NS_189" vType="car" speedFactor="1.15" vaporized=""/>
    <tripinfo id="SN_64" depart="64.00" departLane="3i_0" departPos="4.10" departSpeed="0.00" departDelay="0.00" arrival="272.00" arrivalLane="4o_0" arrivalPos="492.80" arrivalSpeed="10.20" duration="208.00" routeLength="995.90" waitingTime="123.00" waitingCount="1" stopTime="0.00" timeLoss="137.33" rerouteNo="0" devices="tripinfo_SN_64" vType="car" speedFactor="1.01" vaporized=""/>
    <tripinfo id="SN_91" depart="92.00" departLane="3i_0" departPos="4.10" departSpeed="0.00" departDelay="1.00" arrival="274.00" arrivalLane="4o_0" arrivalPos="492.80" arrivalSpeed="11.00" duration="182.00" routeLength="995.90" waitingTime="97.00" waitingCount="1" stopTime="0.00" timeLoss="116.59" rerouteNo="0" devices="tripinfo_SN_91" vType="car" speedFactor="1.09" vaporized=""/>
    <tripinfo id="SN_89" depart="89.00" departLane="3i_0" departPos="4.10" departSpeed="0.00" departDelay="0.00" arrival="275.00" arrivalLane="2o_0" arrivalPos="492.80" arrivalSpeed="10.18" duration="186.00" routeLength="990.53" waitingTime="97.00" waitingCount="1" stopTime="0.00" timeLoss="112.64" rerouteNo="0" devices="tripinfo_SN_89" vType="car" speedFactor="0.96" vaporized=""/>
    <tripinfo id="SN_93" depart="95.00" departLane="3i_0" departPos="4.10" departSpeed="0.00" departDelay="2.00" arrival="276.00" arrivalLane="4o_0" arrivalPos="492.80" arrivalSpeed="11.48" duration="181.00" routeLength="995.90" waitingTime="96.00" waitingCount="1" stopTime="0.00" timeLoss="112.18" rerouteNo="0" devices="tripinfo_SN_93" vType="car" speedFactor="1.04" vaporized=""/>
    <tripinfo id="EW_62" depart="62.00" departLane="4i_0" departPos="4.10" departSpeed="0.00" departDelay="0.00" arrival="277.00" arrivalLane="1o_0" arrivalPos="492.80" arrivalSpeed="9.87" duration="215.00" routeLength="990.53" waitingTime="126.00" waitingCount="1" stopTime="0.00" timeLoss="139.36" rerouteNo="0" devices="tripinfo_EW_62" vType="car" speedFactor="0.93" vaporized=""/>
    <tripinfo id="SN_113" depart="113.00" departLane="3i_0" departPos="4.10" departSpeed="0.00" departDelay="0.00" arrival="277.00" arrivalLane="2o_0" arrivalPos="492.80" arrivalSpeed="12.11" duration="164.00" routeLength="990.53" waitingTime="80.00" waitingCount="1" stopTime="0.00" timeLoss="103.57" rerouteNo="0" devices="tripinfo_SN_113" vType="car" speedFactor="1.17" vaporized=""/>
    <tripinfo id="EW_56" depart="56.00" departLane="4i_0" departPos="4.10" departSpeed="0.00" departDelay="0.00" arrival="279.00" arrivalLane="3o_0" arrivalPos="492.80" arrivalSpeed="9.37" duration="223.00" routeLength="995.90" waitingTime="128.00" waitingCount="1" stopTime="0.00" timeLoss="141.89" rerouteNo="0" devices="tripinfo_EW_56" vType="car" speedFactor="0.87" vaporized=""/>
    <tripinfo id="EW_63" depart="64.00" departLane="4i_0" departPos="4.10" departSpeed="0.00" departDelay="1.00" arrival="283.00" arrivalLane="2o_0" arrivalPos="492.80" arrivalSpeed="12.32" duration="219.00" routeLength="995.70" waitingTime="136.00" waitingCount="3" stopTime="0.00" timeLoss="158.62" rerouteNo="0" devices="tripinfo_EW_63" vType="car" speedFactor="1.18" vaporized=""/>
    <tripinfo id="SN_107" depart="109.00" departLane="3i_0" departPos="4.10" departSpeed="0.00" departDelay="2.00" arrival="289.00" arrivalLane="4o_0" arrivalPos="492.80" arrivalSpeed="9.38" duration="180.00" routeLength="995.90" waitingTime="81.00" waitingCount="1" stopTime="0.00" timeLoss="96.28" rerouteNo="0" devices="tripinfo_SN_107" vType="car" speedFactor="0.85" vaporized=""/>
    <tripinfo id="SN_120" depart="120.00" departLane="3i_0" departPos="4.10" departSpeed="0.00" departDelay="0.00" arrival="290.00" arrivalLane="1o_0" arrivalPos="492.80" arrivalSpeed="10.00" duration="170.00" routeLength="995.70" waitingTime="79.00" waitingCount="2" stopTime="0.00" timeLoss="99.23" rerouteNo="0" devices="tripinfo_SN_120" vType="car" speedFactor="1.00" vaporized=""/>
    <tripinfo id="EW_64" depart="67.00" departLane="4i_0" departPos="4.10" departSpeed="0.00" departDelay="3.00" arrival="312.00" arrivalLane="1o_0" arrivalPos="492.80" arrivalSpeed="12.40" duration="245.00" routeLength="990.53" waitingTime="157.00" waitingCount="3" stopTime="0.00" timeLoss="183.23" rerouteNo="0" devices="tripinfo_EW_64" vType="car" speedFactor="1.15" vaporized=""/>
    <tripinfo id="NS_191" depart="193.00" departLane="2i_0" departPos="4.10" departSpeed="0.00" departDelay="2.00" arrival="317.00" arrivalLane="3o_0" arrivalPos="492.80" arrivalSpeed="9.96" duration="124.00" routeLength="995.70" waitingTime="38.00" waitingCount="2" stopTime="0.00" timeLoss="53.00" rerouteNo="0" devices="tripinfo_NS_191" vType="car" speedFactor="1.00" vaporized=""/>
    <tripinfo id="WE_189" depart="189.00" departLane="1i_0" departPos="4.10" departSpeed="0.00" departDelay="0.00" arrival="319.00" arrivalLane="4o_0" arrivalPos="492.80" arrivalSpeed="10.68" duration="130.00" routeLength="995.70" waitingTime="42.00" waitingCount="2" stopTime="0.00" timeLoss="56.78" rerouteNo="0" devices="tripinfo_WE_189" vType="car" speedFactor="0.97" vaporized=""/>
    <tripinfo id="SN_129" depart="129.00" departLane="3i_0" departPos="4.10" departSpeed="0.00" departDelay="0.00" arrival="321.00" arrivalLane="4o_0" arrivalPos="492.80" arrivalSpeed="11.81" duration="192.00" routeLength="995.90" waitingTime="99.00" waitingCount="4" stopTime="0.00" timeLoss="128.41" rerouteNo="0" devices="tripinfo_SN_129" vType="car" speedFactor="1.12" vaporized=""/>
    <tripinfo id="NS_217" depart="217.00" departLane="2i_0" departPos="4.10" departSpeed="0.00" departDelay="0.00" arrival="323.00" arrivalLane="1o_0" arrivalPos="492.80" arrivalSpeed="10.98" duration="106.00" routeLength="995.90" waitingTime="16.00" waitingCount="1" stopTime="0.00" timeLoss="35.88" rerouteNo="0" devices="tripinfo_NS_217" vType="car" speedFactor="1.02" vaporized=""/>
    <tripinfo id="NS_241" depart="241.00" departLane="2i_0" departPos="4.10" departSpeed="0.00" departDelay="0.00" arrival="325.00" arrivalLane="3o_0" arrivalPos="492.80" arrivalSpeed="10.25" duration="84.00" routeLength="995.70" waitingTime="0.00" waitingCount="0" stopTime="0.00" timeLoss="13.57" rerouteNo="0" devices="tripinfo_NS_241" vType="car" speedFactor="1.01" vaporized=""/>
    <tripinfo id="EW_84" depart="85.00" departLane="4i_0" departPos="4.10" departSpeed="0.00" departDelay="1.00" arrival="327.00" arrivalLane="3o_0" arrivalPos="492.80" arrivalSpeed="11.99" duration="242.00" routeLength="995.90" waitingTime="150.00" waitingCount="5" stopTime="0.00" timeLoss="181.43" rerouteNo="0" devices="tripinfo_EW_84" vType="car" speedFactor="1.18" vaporized=""/>
    <tripinfo id="SN_131" depart="132.00" departLane="3i_0" departPos="4.10" departSpeed="0.00" departDelay="1.00" arrival="329.00" arrivalLane="2o_0" arrivalPos="492.80" arrivalSpeed="10.19" duration="197.00" routeLength="990.53" waitingTime="97.00" waitingCount="3" stopTime="0.00" timeLoss="127.78" rerouteNo="0" devices="tripinfo_SN_131" vType="car" speedFactor="1.02" vaporized=""/>
    <tripinfo id="NS_246" depart="246.00" departLane="2i_0" departPos="4.10" departSpeed="0.00" departDelay="0.00" arrival="330.00" arrivalLane="1o_0" arrivalPos="492.80" arrivalSpeed="10.00" duration="84.00" routeLength="995.90" waitingTime="0.00" waitingCount="0" stopTime="0.00" timeLoss="9.63" rerouteNo="0" devices="tripinfo_NS_246" vType="car" speedFactor="0.96" vaporized=""/>
    <tripinfo id="SN_138" depart="138.00" departLane="3i_0" departPos="4.10" departSpeed="0.00" departDelay="0.00" arrival="335.00" arrivalLane="2o_0" arrivalPos="492.80" arrivalSpeed="9.63" duration="197.00" routeLength="990.53" waitingTime="89.00" waitingCount="3" stopTime="0.00" timeLoss="121.99" rerouteNo="0" devices="tripinfo_SN_138" vType="car" speedFactor="0.94" vaporized=""/>
    <tripinfo id="WE_238" depart="238.00" departLane="1i_0" departPos="4.10" departSpeed="0.00" departDelay="0.00" arrival="337.00" arrivalLane="3o_0" arrivalPos="492.80" arrivalSpeed="10.76" duration="99.00" routeLength="990.53" waitingTime="3.00" waitingCount="1" stopTime="0.00" timeLoss="32.37" rerouteNo="0" devices="tripinfo_WE_238" vType="car" speedFactor="1.06" vaporized=""/>
    <tripinfo id="WE_227" depart="227.00" departLane="1i_0" departPos="4.10" departSpeed="0.00" departDelay="0.00" arrival="340.00" arrivalLane="2o_0" arrivalPos="492.80" arrivalSpeed="9.94" duration="113.00" routeLength="995.90" waitingTime="11.00" waitingCount="2" stopTime="0.00" timeLoss="36.06" rerouteNo="0" devices="tripinfo_WE_227" vType="car" speedFactor="0.92" vaporized=""/>
    <tripinfo id="WE_221" depart="221.00" departLane="1i_0" departPos="4.10" departSpeed="0.00" departDelay="0.00" arrival="341.00" arrivalLane="4o_0" arrivalPos="492.80" arrivalSpeed="8.84" duration="120.00" routeLength="995.70" waitingTime="16.00" waitingCount="2" stopTime="0.00" timeLoss="34.88" rerouteNo="0" devices="tripinfo_WE_221" vType="car" speedFactor="0.83" vaporized=""/>