<?xml version="1.0" encoding="UTF-8"?>

<!-- generated on 2024-05-05 22:49:26 by Eclipse SUMO sumo Version 1.19.0
<configuration xmlns:xsi="http://www.w3.org/2001/XMLSchema-instance" xsi:noNamespaceSchemaLocation="http://sumo.dlr.de/xsd/sumoConfiguration.xsd">

    <input>
        <net-file value="twoone.net.xml"/>
        <route-files value="route_gen.rou.xml"/>
    </input>

    <output>
        <tripinfo-output value="tripinfo_epi386.xml"/>
    </output>

    <report>
        <no-warnings value="true"/>
    </report>

    <traci_server>
        <remote-port value="60617"/>
    </traci_server>

</configuration>
-->

<tripinfos xmlns:xsi="http://www.w3.org/2001/XMLSchema-instance" xsi:noNamespaceSchemaLocation="http://sumo.dlr.de/xsd/tripinfo_file.xsd">
    <tripinfo id="SN_0" depart="0.00" departLane="3i_0" departPos="4.10" departSpeed="0.00" departDelay="0.00" arrival="79.00" arrivalLane="2o_0" arrivalPos="492.80" arrivalSpeed="11.28" duration="79.00" routeLength="990.53" waitingTime="1.00" waitingCount="1" stopTime="0.00" timeLoss="12.43" rerouteNo="0" devices="tripinfo_SN_0" vType="car" speedFactor="1.06" vaporized=""/>
    <tripinfo id="NS_6" depart="6.00" departLane="2i_0" departPos="4.10" departSpeed="0.00" departDelay="0.00" arrival="79.00" arrivalLane="4o_0" arrivalPos="492.80" arrivalSpeed="10.74" duration="73.00" routeLength="990.53" waitingTime="0.00" waitingCount="0" stopTime="0.00" timeLoss="7.73" rerouteNo="0" devices="tripinfo_NS_6" vType="car" speedFactor="1.08" vaporized=""/>
    <tripinfo id="WE_1" depart="1.00" departLane="1i_0" departPos="4.10" departSpeed="0.00" departDelay="0.00" arrival="87.00" arrivalLane="2o_0" arrivalPos="492.80" arrivalSpeed="9.20" duration="86.00" routeLength="995.90" waitingTime="0.00" waitingCount="0" stopTime="0.00" timeLoss="10.03" rerouteNo="0" devices="tripinfo_WE_1" vType="car" speedFactor="0.94" vaporized=""/>
    <tripinfo id="NS_8" depart="9.00" departLane="2i_0" departPos="4.10" departSpeed="0.00" departDelay="1.00" arrival="87.00" arrivalLane="3o_0" arrivalPos="492.80" arrivalSpeed="11.31" duration="78.00" routeLength="995.70" waitingTime="0.00" waitingCount="0" stopTime="0.00" timeLoss="9.05" rerouteNo="0" devices="tripinfo_NS_8" vType="car" speedFactor="1.03" vaporized=""/>
    <tripinfo id="WE_6" depart="6.00" departLane="1i_0" departPos="4.10" departSpeed="0.00" departDelay="0.00" arrival="88.00" arrivalLane="2o_0" arrivalPos="492.80" arrivalSpeed="10.25" duration="82.00" routeLength="995.90" waitingTime="0.00" waitingCount="0" stopTime="0.00" timeLoss="11.94" rerouteNo="0" devices="tripinfo_WE_6" vType="car" speedFactor="1.01" vaporized=""/>
    <tripinfo id="WE_21" depart="21.00" departLane="1i_0" departPos="4.10" departSpeed="0.00" departDelay="0.00" arrival="105.00" arrivalLane="3o_0" arrivalPos="492.80" arrivalSpeed="9.26" duration="84.00" routeLength="990.53" waitingTime="0.00" waitingCount="0" stopTime="0.00" timeLoss="8.97" rerouteNo="0" devices="tripinfo_WE_21" vType="car" speedFactor="0.94" vaporized=""/>
    <tripinfo id="WE_25" depart="25.00" departLane="1i_0" departPos="10.10" departSpeed="0.00" departDelay="0.00" arrival="106.00" arrivalLane="2o_0" arrivalPos="492.80" arrivalSpeed="11.48" duration="81.00" routeLength="989.90" waitingTime="0.00" waitingCount="0" stopTime="0.00" timeLoss="12.89" rerouteNo="0" devices="tripinfo_WE_25" vType="truck" speedFactor="1.05" vaporized=""/>
    <tripinfo id="WE_36" depart="36.00" departLane="1i_0" departPos="4.10" departSpeed="0.00" departDelay="0.00" arrival="107.00" arrivalLane="3o_0" arrivalPos="492.80" arrivalSpeed="11.28" duration="71.00" routeLength="990.53" waitingTime="0.00" waitingCount="0" stopTime="0.00" timeLoss="8.15" rerouteNo="0" devices="tripinfo_WE_36" vType="car" speedFactor="1.12" vaporized=""/>
    <tripinfo id="NS_37" depart="37.00" departLane="2i_0" departPos="4.10" departSpeed="0.00" departDelay="0.00" arrival="124.00" arrivalLane="3o_0" arrivalPos="492.80" arrivalSpeed="10.20" duration="87.00" routeLength="995.70" waitingTime="0.00" waitingCount="0" stopTime="0.00" timeLoss="10.33" rerouteNo="0" devices="tripinfo_NS_37" vType="car" speedFactor="0.93" vaporized=""/>
    <tripinfo id="NS_45" depart="45.00" departLane="2i_0" departPos="4.10" departSpeed="0.00" departDelay="0.00" arrival="128.00" arrivalLane="4o_0" arrivalPos="492.80" arrivalSpeed="10.18" duration="83.00" routeLength="990.53" waitingTime="0.00" waitingCount="0" stopTime="0.00" timeLoss="7.90" rerouteNo="0" devices="tripinfo_NS_45" vType="car" speedFactor="0.94" vaporized=""/>
    <tripinfo id="WE_55" depart="55.00" departLane="1i_0" departPos="4.10" departSpeed="0.00" departDelay="0.00" arrival="133.00" arrivalLane="3o_0" arrivalPos="492.80" arrivalSpeed="11.11" duration="78.00" routeLength="990.53" waitingTime="0.00" waitingCount="0" stopTime="0.00" timeLoss="8.08" rerouteNo="0" devices="tripinfo_WE_55" vType="car" speedFactor="1.01" vaporized=""/>
    <tripinfo id="WE_62" depart="62.00" departLane="1i_0" departPos="4.10" departSpeed="0.00" departDelay="0.00" arrival="152.00" arrivalLane="2o_0" arrivalPos="492.80" arrivalSpeed="8.99" duration="90.00" routeLength="995.90" waitingTime="0.00" waitingCount="0" stopTime="0.00" timeLoss="9.00" rerouteNo="0" devices="tripinfo_WE_62" vType="car" speedFactor="0.87" vaporized=""/>
    <tripinfo id="WE_73" depart="73.00" departLane="1i_0" departPos="4.10" departSpeed="0.00" departDelay="0.00" arrival="159.00" arrivalLane="4o_0" arrivalPos="492.80" arrivalSpeed="9.67" duration="86.00" routeLength="995.70" waitingTime="0.00" waitingCount="0" stopTime="0.00" timeLoss="9.85" rerouteNo="0" devices="tripinfo_WE_73" vType="car" speedFactor="0.93" vaporized=""/>
    <tripinfo id="EW_14" depart="14.00" departLane="4i_0" departPos="4.10" departSpeed="0.00" departDelay="0.00" arrival="176.00" arrivalLane="1o_0" arrivalPos="492.80" arrivalSpeed="9.17" duration="162.00" routeLength="990.53" waitingTime="63.00" waitingCount="1" stopTime="0.00" timeLoss="77.30" rerouteNo="0" devices="tripinfo_EW_14" vType="car" speedFactor="0.83" vaporized=""/>
    <tripinfo id="EW_15" depart="18.00" departLane="4i_0" departPos="10.10" departSpeed="0.00" departDelay="3.00" arrival="179.00" arrivalLane="1o_0" arrivalPos="492.80" arrivalSpeed="11.16" duration="161.00" routeLength="984.53" waitingTime="57.00" waitingCount="1" stopTime="0.00" timeLoss="91.76" rerouteNo="0" devices="tripinfo_EW_15" vType="truck" speedFactor="1.02" vaporized=""/>
    <tripinfo id="EW_19" depart="21.00" departLane="4i_0" departPos="4.10" departSpeed="0.00" departDelay="2.00" arrival="179.00" arrivalLane="3o_0" arrivalPos="492.80" arrivalSpeed="9.14" duration="158.00" routeLength="995.90" waitingTime="58.00" waitingCount="2" stopTime="0.00" timeLoss="77.79" rerouteNo="0" devices="tripinfo_EW_19" vType="car" speedFactor="0.89" vaporized=""/>
    <tripinfo id="EW_36" depart="36.00" departLane="4i_0" departPos="4.10" departSpeed="0.00" departDelay="0.00" arrival="181.00" arrivalLane="1o_0" arrivalPos="492.80" arrivalSpeed="9.75" duration="145.00" routeLength="990.53" waitingTime="49.00" waitingCount="1" stopTime="0.00" timeLoss="73.91" rerouteNo="0" devices="tripinfo_EW_36" vType="car" speedFactor="0.99" vaporized=""/>
    <tripinfo id="EW_45" depart="45.00" departLane="4i_0" departPos="4.10" departSpeed="0.00" departDelay="0.00" arrival="183.00" arrivalLane="3o_0" arrivalPos="492.80" arrivalSpeed="9.21" duration="138.00" routeLength="995.90" waitingTime="41.00" waitingCount="1" stopTime="0.00" timeLoss="57.72" rerouteNo="0" devices="tripinfo_EW_45" vType="car" speedFactor="0.88" vaporized=""/>
    <tripinfo id="EW_48" depart="48.00" departLane="4i_0" departPos="4.10" departSpeed="0.00" departDelay="0.00" arrival="185.00" arrivalLane="3o_0" arrivalPos="492.80" arrivalSpeed="9.40" duration="137.00" routeLength="995.90" waitingTime="38.00" waitingCount="1" stopTime="0.00" timeLoss="61.50" rerouteNo="0" devices="tripinfo_EW_48" vType="car" speedFactor="0.94" vaporized=""/>
    <tripinfo id="EW_57" depart="57.00" departLane="4i_0" departPos="10.10" departSpeed="0.00" departDelay="0.00" arrival="185.00" arrivalLane="2o_0" arrivalPos="492.80" arrivalSpeed="10.13" duration="128.00" routeLength="989.70" waitingTime="27.00" waitingCount="1" stopTime="0.00" timeLoss="53.27" rerouteNo="0" devices="tripinfo_EW_57" vType="truck" speedFactor="0.94" vaporized=""/>
    <tripinfo id="WE_93" depart="93.00" departLane="1i_0" departPos="4.10" departSpeed="0.00" departDelay="0.00" arrival="186.00" arrivalLane="4o_0" arrivalPos="492.80" arrivalSpeed="12.69" duration="93.00" routeLength="995.70" waitingTime="16.00" waitingCount="1" stopTime="0.00" timeLoss="32.08" rerouteNo="0" devices="tripinfo_WE_93" vType="car" speedFactor="1.17" vaporized=""/>
    <tripinfo id="NS_88" depart="88.00" departLane="2i_0" departPos="10.10" departSpeed="0.00" departDelay="0.00" arrival="191.00" arrivalLane="3o_0" arrivalPos="492.80" arrivalSpeed="10.74" duration="103.00" routeLength="989.70" waitingTime="12.00" waitingCount="1" stopTime="0.00" timeLoss="32.91" rerouteNo="0" devices="tripinfo_NS_88" vType="truck" speedFactor="1.00" vaporized=""/>
    <tripinfo id="SN_23" depart="23.00" departLane="3i_0" departPos="4.10" departSpeed="0.00" departDelay="0.00" arrival="197.00" arrivalLane="1o_0" arrivalPos="492.80" arrivalSpeed="8.58" duration="174.00" routeLength="995.70" waitingTime="75.00" waitingCount="2" stopTime="0.00" timeLoss="91.05" rerouteNo="0" devices="tripinfo_SN_23" vType="car" speedFactor="0.86" vaporized=""/>
    <tripinfo id="EW_59" depart="61.00" departLane="4i_0" departPos="4.10" departSpeed="0.00" departDelay="2.00" arrival="197.00" arrivalLane="2o_0" arrivalPos="492.80" arrivalSpeed="8.39" duration="136.00" routeLength="995.70" waitingTime="24.00" waitingCount="1" stopTime="0.00" timeLoss="49.79" rerouteNo="0" devices="tripinfo_EW_59" vType="car" speedFactor="0.83" vaporized=""/>
    <tripinfo id="SN_27" depart="27.00" departLane="3i_0" departPos="10.10" departSpeed="0.00" departDelay="0.00" arrival="199.00" arrivalLane="2o_0" arrivalPos="492.80" arrivalSpeed="9.86" duration="172.00" routeLength="984.53" waitingTime="69.00" waitingCount="2" stopTime="0.00" timeLoss="102.78" rerouteNo="0" devices="tripinfo_SN_27" vType="truck" speedFactor="1.01" vaporized=""/>
    <tripinfo id="SN_32" depart="32.00" departLane="3i_0" departPos="4.10" departSpeed="0.00" departDelay="0.00" arrival="201.00" arrivalLane="2o_0" arrivalPos="492.80" arrivalSpeed="10.53" duration="169.00" routeLength="990.53" waitingTime="68.00" waitingCount="2" stopTime="0.00" timeLoss="101.85" rerouteNo="0" devices="tripinfo_SN_32" vType="car" speedFactor="1.05" vaporized=""/>
    <tripinfo id="NS_93" depart="93.00" departLane="2i_0" departPos="4.10" departSpeed="0.00" departDelay="0.00" arrival="201.00" arrivalLane="3o_0" arrivalPos="492.80" arrivalSpeed="9.99" duration="108.00" routeLength="995.70" waitingTime="10.00" waitingCount="1" stopTime="0.00" timeLoss="36.67" rerouteNo="0" devices="tripinfo_NS_93" vType="car" speedFactor="0.99" vaporized=""/>
    <tripinfo id="EW_73" depart="73.00" departLane="4i_0" departPos="4.10" departSpeed="0.00" departDelay="0.00" arrival="203.00" arrivalLane="2o_0" arrivalPos="492.80" arrivalSpeed="12.16" duration="130.00" routeLength="995.70" waitingTime="26.00" waitingCount="2" stopTime="0.00" timeLoss="69.57" rerouteNo="0" devices="tripinfo_EW_73" vType="car" speedFactor="1.18" vaporized=""/>
    <tripinfo id="WE_103" depart="103.00" departLane="1i_0" departPos="4.10" departSpeed="0.00" departDelay="0.00" arrival="203.00" arrivalLane="4o_0" arrivalPos="492.80" arrivalSpeed="10.66" duration="100.00" routeLength="995.70" waitingTime="5.00" waitingCount="2" stopTime="0.00" timeLoss="26.75" rerouteNo="0" devices="tripinfo_WE_103" vType="car" speedFactor="0.97" vaporized=""/>
    <tripinfo id="WE_115" depart="115.00" departLane="1i_0" departPos="4.10" departSpeed="0.00" departDelay="0.00" arrival="203.00" arrivalLane="3o_0" arrivalPos="492.80" arrivalSpeed="12.24" duration="88.00" routeLength="990.53" waitingTime="0.00" waitingCount="0" stopTime="0.00" timeLoss="23.60" rerouteNo="0" devices="tripinfo_WE_115" vType="car" speedFactor="1.10" vaporized=""/>
    <tripinfo id="NS_95" depart="96.00" departLane="2i_0" departPos="4.10" departSpeed="0.00" departDelay="1.00" arrival="204.00" arrivalLane="4o_0" arrivalPos="492.80" arrivalSpeed="10.47" duration="108.00" routeLength="990.53" waitingTime="11.00" waitingCount="2" stopTime="0.00" timeLoss="39.18" rerouteNo="0" devices="tripinfo_NS_95" vType="car" speedFactor="1.02" vaporized=""/>
    <tripinfo id="WE_106" depart="106.00" departLane="1i_0" departPos="4.10" departSpeed="0.00" departDelay="0.00" arrival="205.00" arrivalLane="2o_0" arrivalPos="492.80" arrivalSpeed="12.33" duration="99.00" routeLength="995.90" waitingTime="1.00" waitingCount="1" stopTime="0.00" timeLoss="38.36" rerouteNo="0" devices="tripinfo_WE_106" vType="car" speedFactor="1.18" vaporized=""/>
    <tripinfo id="SN_53" depart="53.00" departLane="3i_0" departPos="4.10" departSpeed="0.00" departDelay="0.00" arrival="206.00" arrivalLane="4o_0" arrivalPos="492.80" arrivalSpeed="12.84" duration="153.00" routeLength="995.90" waitingTime="58.00" waitingCount="4" stopTime="0.00" timeLoss="91.59" rerouteNo="0" devices="tripinfo_SN_53" vType="car" speedFactor="1.16" vaporized=""/>
    <tripinfo id="WE_131" depart="131.00" departLane="1i_0" departPos="4.10" departSpeed="0.00" departDelay="0.00" arrival="207.00" arrivalLane="2o_0" arrivalPos="492.80" arrivalSpeed="11.03" duration="76.00" routeLength="995.90" waitingTime="0.00" waitingCount="0" stopTime="0.00" timeLoss="7.47" rerouteNo="0" devices="tripinfo_WE_131" vType="car" speedFactor="1.04" vaporized=""/>
    <tripinfo id="EW_125" depart="125.00" departLane="4i_0" departPos="10.10" departSpeed="0.00" departDelay="0.00" arrival="208.00" arrivalLane="1o_0" arrivalPos="492.80" arrivalSpeed="10.87" duration="83.00" routeLength="984.53" waitingTime="0.00" waitingCount="0" stopTime="0.00" timeLoss="14.03" rerouteNo="0" devices="tripinfo_EW_125" vType="truck" speedFactor="1.02" vaporized=""/>
    <tripinfo id="SN_54" depart="56.00" departLane="3i_0" departPos="4.10" departSpeed="0.00" departDelay="2.00" arrival="213.00" arrivalLane="2o_0" arrivalPos="492.80" arrivalSpeed="10.99" duration="157.00" routeLength="990.53" waitingTime="57.00" waitingCount="6" stopTime="0.00" timeLoss="87.41" rerouteNo="0" devices="tripinfo_SN_54" vType="car" speedFactor="1.02" vaporized=""/>
    <tripinfo id="NS_121" depart="121.00" departLane="2i_0" departPos="4.10" departSpeed="0.00" departDelay="0.00" arrival="215.00" arrivalLane="4o_0" arrivalPos="492.80" arrivalSpeed="9.94" duration="94.00" routeLength="990.53" waitingTime="1.00" waitingCount="1" stopTime="0.00" timeLoss="15.58" rerouteNo="0" devices="tripinfo_NS_121" vType="car" speedFactor="0.90" vaporized=""/>
    <tripinfo id="WE_135" depart="135.00" departLane="1i_0" departPos="4.10" departSpeed="0.00" departDelay="0.00" arrival="216.00" arrivalLane="2o_0" arrivalPos="492.80" arrivalSpeed="10.34" duration="81.00" routeLength="995.90" waitingTime="0.00" waitingCount="0" stopTime="0.00" timeLoss="13.19" rerouteNo="0" devices="tripinfo_WE_135" vType="car" speedFactor="1.04" vaporized=""/>
    <tripinfo id="NS_138" depart="138.00" departLane="2i_0" departPos="4.10" departSpeed="0.00" departDelay="0.00" arrival="217.00" arrivalLane="4o_0" arrivalPos="492.80" arrivalSpeed="10.76" duration="79.00" routeLength="990.53" waitingTime="0.00" waitingCount="0" stopTime="0.00" timeLoss="8.15" rerouteNo="0" devices="tripinfo_NS_138" vType="car" speedFactor="1.00" vaporized=""/>
    <tripinfo id="NS_129" depart="129.00" departLane="2i_0" departPos="4.10" departSpeed="0.00" departDelay="0.00" arrival="218.00" arrivalLane="3o_0" arrivalPos="492.80" arrivalSpeed="9.87" duration="89.00" routeLength="995.70" waitingTime="1.00" waitingCount="1" stopTime="0.00" timeLoss="14.79" rerouteNo="0" devices="tripinfo_NS_129" vType="car" speedFactor="0.96" vaporized=""/>
    <tripinfo id="EW_130" depart="130.00" departLane="4i_0" departPos="4.10" departSpeed="0.00" departDelay="0.00" arrival="220.00" arrivalLane="3o_0" arrivalPos="492.80" arrivalSpeed="11.40" duration="90.00" routeLength="995.90" waitingTime="5.00" waitingCount="1" stopTime="0.00" timeLoss="24.59" rerouteNo="0" devices="tripinfo_EW_130" vType="car" speedFactor="1.09" vaporized=""/>
    <tripinfo id="EW_152" depart="154.00" departLane="4i_0" departPos="4.10" departSpeed="0.00" departDelay="2.00" arrival="227.00" arrivalLane="1o_0" arrivalPos="492.80" arrivalSpeed="12.72" duration="73.00" routeLength="990.53" waitingTime="0.00" waitingCount="0" stopTime="0.00" timeLoss="12.80" rerouteNo="0" devices="tripinfo_EW_152" vType="car" speedFactor="1.17" vaporized=""/>
    <tripinfo id="WE_143" depart="143.00" departLane="1i_0" departPos="4.10" departSpeed="0.00" departDelay="0.00" arrival="231.00" arrivalLane="2o_0" arrivalPos="492.80" arrivalSpeed="9.86" duration="88.00" routeLength="995.90" waitingTime="0.00" waitingCount="0" stopTime="0.00" timeLoss="8.97" rerouteNo="0" devices="tripinfo_WE_143" vType="car" speedFactor="0.90" vaporized=""/>
    <tripinfo id="EW_158" depart="159.00" departLane="4i_0" departPos="4.10" departSpeed="0.00" departDelay="1.00" arrival="232.00" arrivalLane="1o_0" arrivalPos="492.80" arrivalSpeed="11.97" duration="73.00" routeLength="990.53" waitingTime="0.00" waitingCount="0" stopTime="0.00" timeLoss="8.59" rerouteNo="0" devices="tripinfo_EW_158" vType="car" speedFactor="1.10" vaporized=""/>
    <tripinfo id="EW_143" depart="143.00" departLane="4i_0" departPos="4.10" departSpeed="0.00" departDelay="0.00" arrival="235.00" arrivalLane="2o_0" arrivalPos="492.80" arrivalSpeed="8.82" duration="92.00" routeLength="995.70" waitingTime="0.00" waitingCount="0" stopTime="0.00" timeLoss="10.57" rerouteNo="0" devices="tripinfo_EW_143" vType="car" speedFactor="0.88" vaporized=""/>
    <tripinfo id="NS_153" depart="153.00" departLane="2i_0" departPos="4.10" departSpeed="0.00" departDelay="0.00" arrival="240.00" arrivalLane="4o_0" arrivalPos="492.80" arrivalSpeed="10.40" duration="87.00" routeLength="990.53" waitingTime="3.00" waitingCount="1" stopTime="0.00" timeLoss="17.38" rerouteNo="0" devices="tripinfo_NS_153" vType="car" speedFactor="1.02" vaporized=""/>
    <tripinfo id="EW_161" depart="162.00" departLane="4i_0" departPos="4.10" departSpeed="0.00" departDelay="1.00" arrival="240.00" arrivalLane="1o_0" arrivalPos="492.80" arrivalSpeed="10.60" duration="78.00" routeLength="990.53" waitingTime="0.00" waitingCount="0" stopTime="0.00" timeLoss="7.48" rerouteNo="0" devices="tripinfo_EW_161" vType="car" speedFactor="1.00" vaporized=""/>
    <tripinfo id="EW_151" depart="151.00" departLane="4i_0" departPos="4.10" departSpeed="0.00" departDelay="0.00" arrival="243.00" arrivalLane="3o_0" arrivalPos="492.80" arrivalSpeed="9.36" duration="92.00" routeLength="995.90" waitingTime="0.00" waitingCount="0" stopTime="0.00" timeLoss="8.22" rerouteNo="0" devices="tripinfo_EW_151" vType="car" speedFactor="0.85" vaporized=""/>
    <tripinfo id="EW_166" depart="166.00" departLane="4i_0" departPos="4.10" departSpeed="0.00" departDelay="0.00" arrival="245.00" arrivalLane="1o_0" arrivalPos="492.80" arrivalSpeed="11.04" duration="79.00" routeLength="990.53" waitingTime="0.00" waitingCount="0" stopTime="0.00" timeLoss="8.20" rerouteNo="0" devices="tripinfo_EW_166" vType="car" speedFactor="1.00" vaporized=""/>
    <tripinfo id="EW_167" depart="169.00" departLane="4i_0" departPos="4.10" departSpeed="0.00" departDelay="2.00" arrival="256.00" arrivalLane="3o_0" arrivalPos="492.80" arrivalSpeed="9.35" duration="87.00" routeLength="995.90" waitingTime="0.00" waitingCount="0" stopTime="0.00" timeLoss="8.34" rerouteNo="0" devices="tripinfo_EW_167" vType="car" speedFactor="0.90" vaporized=""/>
    <tripinfo id="EW_169" depart="172.00" departLane="4i_0" departPos="4.10" departSpeed="0.00" departDelay="3.00" arrival="258.00" arrivalLane="3o_0" arrivalPos="492.80" arrivalSpeed="10.30" duration="86.00" routeLength="995.90" waitingTime="0.00" waitingCount="0" stopTime="0.00" timeLoss="16.58" rerouteNo="0" devices="tripinfo_EW_169" vType="car" speedFactor="1.02" vaporized=""/>
    <tripinfo id="EW_176" depart="176.00" departLane="4i_0" departPos="4.10" departSpeed="0.00" departDelay="0.00" arrival="260.00" arrivalLane="3o_0" arrivalPos="492.80" arrivalSpeed="9.76" duration="84.00" routeLength="995.90" waitingTime="0.00" waitingCount="0" stopTime="0.00" timeLoss="10.83" rerouteNo="0" devices="tripinfo_EW_176" vType="car" speedFactor="0.97" vaporized=""/>
    <tripinfo id="SN_55" depart="58.00" departLane="3i_0" departPos="4.10" departSpeed="0.00" departDelay="3.00" arrival="261.00" arrivalLane="1o_0" arrivalPos="492.80" arrivalSpeed="10.29" duration="203.00" routeLength="995.70" waitingTime="90.00" waitingCount="7" stopTime="0.00" timeLoss="129.87" rerouteNo="0" devices="tripinfo_SN_55" vType="car" speedFactor="0.97" vaporized=""/>
    <tripinfo id="NS_168" depart="168.00" departLane="2i_0" departPos="10.10" departSpeed="0.00" departDelay="0.00" arrival="263.00" arrivalLane="1o_0" arrivalPos="492.80" arrivalSpeed="11.90" duration="95.00" routeLength="989.90" waitingTime="5.00" waitingCount="2" stopTime="0.00" timeLoss="28.25" rerouteNo="0" devices="tripinfo_NS_168" vType="truck" speedFactor="1.07" vaporized=""/>
    <tripinfo id="SN_62" depart="62.00" departLane="3i_0" departPos="4.10" departSpeed="0.00" departDelay="0.00" arrival="266.00" arrivalLane="2o_0" arrivalPos="492.80" arrivalSpeed="8.92" duration="204.00" routeLength="990.53" waitingTime="81.00" waitingCount="7" stopTime="0.00" timeLoss="126.86" rerouteNo="0" devices="tripinfo_SN_62" vType="car" speedFactor="0.92" vaporized=""/>
    <tripinfo id="WE_179" depart="179.00" departLane="1i_0" departPos="4.10" departSpeed="0.00" departDelay="0.00" arrival="268.00" arrivalLane="2o_0" arrivalPos="492.80" arrivalSpeed="11.51" duration="89.00" routeLength="995.90" waitingTime="2.00" waitingCount="1" stopTime="0.00" timeLoss="25.03" rerouteNo="0" devices="tripinfo_WE_179" vType="car" speedFactor="1.12" vaporized=""/>
    <tripinfo id="WE_187" depart="187.00" departLane="1i_0" departPos="4.10" departSpeed="0.00" departDelay="0.00" arrival="268.00" arrivalLane="3o_0" arrivalPos="492.80" arrivalSpeed="9.83" duration="81.00" routeLength="990.53" waitingTime="0.00" waitingCount="0" stopTime="0.00" timeLoss="9.10" rerouteNo="0" devices="tripinfo_WE_187" vType="car" speedFactor="0.99" vaporized=""/>
    <tripinfo id="SN_65" depart="65.00" departLane="3i_0" departPos="4.10" departSpeed="0.00" departDelay="0.00" arrival="270.00" arrivalLane="2o_0" arrivalPos="492.80" arrivalSpeed="9.61" duration="205.00" routeLength="990.53" waitingTime="78.00" waitingCount="6" stopTime="0.00" timeLoss="130.43" rerouteNo="0" devices="tripinfo_SN_65" vType="car" speedFactor="0.95" vaporized=""/>
    <tripinfo id="NS_176" depart="176.00" departLane="2i_0" departPos="4.10" departSpeed="0.00" departDelay="0.00" arrival="270.00" arrivalLane="3o_0" arrivalPos="492.80" arrivalSpeed="11.15" duration="94.00" routeLength="995.70" waitingTime="3.00" waitingCount="2" stopTime="0.00" timeLoss="27.89" rerouteNo="0" devices="tripinfo_NS_176" vType="car" speedFactor="1.08" vaporized=""/>
    <tripinfo id="NS_186" depart="186.00" departLane="2i_0" departPos="4.10" departSpeed="0.00" departDelay="0.00" arrival="270.00" arrivalLane="4o_0" arrivalPos="492.80" arrivalSpeed="10.48" duration="84.00" routeLength="990.53" waitingTime="0.00" waitingCount="0" stopTime="0.00" timeLoss="14.22" rerouteNo="0" devices="tripinfo_NS_186" vType="car" speedFactor="1.02" vaporized=""/>
    <tripinfo id="SN_66" depart="68.00" departLane="3i_0" departPos="10.10" departSpeed="0.00" departDelay="2.00" arrival="273.00" arrivalLane="4o_0" arrivalPos="492.80" arrivalSpeed="11.45" duration="205.00" routeLength="989.90" waitingTime="72.00" waitingCount="6" stopTime="0.00" timeLoss="138.11" rerouteNo="0" devices="tripinfo_SN_66" vType="truck" speedFactor="1.07" vaporized=""/>
    <tripinfo id="SN_80" depart="80.00" departLane="3i_0" departPos="4.10" departSpeed="0.00" departDelay="0.00" arrival="280.00" arrivalLane="2o_0" arrivalPos="492.80" arrivalSpeed="11.56" duration="200.00" routeLength="990.53" waitingTime="69.00" waitingCount="6" stopTime="0.00" timeLoss="138.47" rerouteNo="0" devices="tripinfo_SN_80" vType="car" speedFactor="1.15" vaporized=""/>
    <tripinfo id="NS_187" depart="189.00" departLane="2i_0" departPos="4.10" departSpeed="0.00" departDelay="2.00" arrival="284.00" arrivalLane="1o_0" arrivalPos="492.80" arrivalSpeed="10.09" duration="95.00" routeLength="995.90" waitingTime="4.00" waitingCount="1" stopTime="0.00" timeLoss="19.44" rerouteNo="0" devices="tripinfo_NS_187" vType="car" speedFactor="0.94" vaporized=""/>
    <tripinfo id="NS_197" depart="197.00" departLane="2i_0" departPos="4.10" departSpeed="0.00" departDelay="0.00" arrival="287.00" arrivalLane="4o_0" arrivalPos="492.80" arrivalSpeed="9.88" duration="90.00" routeLength="990.53" waitingTime="0.00" waitingCount="0" stopTime="0.00" timeLoss="12.32" rerouteNo="0" devices="tripinfo_NS_197" vType="car" speedFactor="0.91" vaporized=""/>
    <tripinfo id="SN_135" depart="135.00" departLane="3i_0" departPos="10.10" departSpeed="0.00" departDelay="0.00" arrival="293.00" arrivalLane="1o_0" arrivalPos="492.80" arrivalSpeed="11.12" duration="158.00" routeLength="989.70" waitingTime="36.00" waitingCount="4" stopTime="0.00" timeLoss="89.71" rerouteNo="0" devices="tripinfo_SN_135" vType="truck" speedFactor="1.04" vaporized=""/>
    <tripinfo id="EW_195" depart="195.00" departLane="4i_0" departPos="4.10" departSpeed="0.00" departDelay="0.00" arrival="295.00" arrivalLane="2o_0" arrivalPos="492.80" arrivalSpeed="9.88" duration="100.00" routeLength="995.70" waitingTime="5.00" waitingCount="2" stopTime="0.00" timeLoss="21.56" rerouteNo="0" devices="tripinfo_EW_195" vType="car" speedFactor="0.91" vaporized=""/>
    <tripinfo id="EW_198" depart="198.00" departLane="4i_0" departPos="4.10" departSpeed="0.00" departDelay="0.00" arrival="297.00" arrivalLane="2o_0" arrivalPos="492.80" arrivalSpeed="10.95" duration="99.00" routeLength="995.70" waitingTime="3.00" waitingCount="1" stopTime="0.00" timeLoss="30.46" rerouteNo="0" devices="tripinfo_EW_198" vType="car" speedFactor="1.04" vaporized=""/>
    <tripinfo id="NS_215" depart="216.00" departLane="2i_0" departPos="4.10" departSpeed="0.00" departDelay="1.00" arrival="298.00" arrivalLane="3o_0" arrivalPos="492.80" arrivalSpeed="11.67" duration="82.00" routeLength="995.70" waitingTime="1.00" waitingCount="1" stopTime="0.00" timeLoss="14.85" rerouteNo="0" devices="tripinfo_NS_215" vType="car" speedFactor="1.06" vaporized=""/>
    <tripinfo id="WE_212" depart="212.00" departLane="1i_0" departPos="4.10" departSpeed="0.00" departDelay="0.00" arrival="304.00" arrivalLane="4o_0" arrivalPos="492.80" arrivalSpeed="10.69" duration="92.00" routeLength="995.70" waitingTime="4.00" waitingCount="1" stopTime="0.00" timeLoss="19.31" rerouteNo="0" devices="tripinfo_WE_212" vType="car" speedFactor="0.97" vaporized=""/>
    <tripinfo id="EW_199" depart="204.00" departLane="4i_0" departPos="4.10" departSpeed="0.00" departDelay="5.00" arrival="305.00" arrivalLane="3o_0" arrivalPos="492.80" arrivalSpeed="10.58" duration="101.00" routeLength="995.90" waitingTime="6.00" waitingCount="1" stopTime="0.00" timeLoss="31.72" rerouteNo="0" devices="tripinfo_EW_199" vType="car" speedFactor="1.02" vaporized=""/>
    <tripinfo id="EW_209" depart="209.00" departLane="4i_0" departPos="10.10" departSpeed="0.00" departDelay="0.00" arrival="312.00" arrivalLane="1o_0" arrivalPos="492.80" arrivalSpeed="11.01" duration="103.00" routeLength="984.53" waitingTime="6.00" waitingCount="3" stopTime="0.00" timeLoss="33.52" rerouteNo="0" devices="tripinfo_EW_209" vType="truck" speedFactor="1.01" vaporized=""/>
    <tripinfo id="WE_215" depart="215.00" departLane="1i_0" departPos="4.10" departSpeed="0.00" departDelay="0.00" arrival="312.00" arrivalLane="2o_0" arrivalPos="492.80" arrivalSpeed="10.14" duration="97.00" routeLength="995.90" waitingTime="3.00" waitingCount="2" stopTime="0.00" timeLoss="21.47" rerouteNo="0" devices="tripinfo_WE_215" vType="car" speedFactor="0.94" vaporized=""/>
    <tripinfo id="SN_151" depart="151.00" departLane="3i_0" departPos="4.10" departSpeed="0.00" departDelay="0.00" arrival="313.00" arrivalLane="4o_0" arrivalPos="492.80" arrivalSpeed="9.30" duration="162.00" routeLength="995.90" waitingTime="38.00" waitingCount="5" stopTime="0.00" timeLoss="79.57" rerouteNo="0" devices="tripinfo_SN_151" vType="car" speedFactor="0.85" vaporized=""/>
    <tripinfo id="SN_194" depart="194.00" departLane="3i_0" departPos="10.10" departSpeed="0.00" departDelay="0.00" arrival="317.00" arrivalLane="4o_0" arrivalPos="492.80" arrivalSpeed="10.33" duration="123.00" routeLength="989.90" waitingTime="6.00" waitingCount="3" stopTime="0.00" timeLoss="47.81" rerouteNo="0" devices="tripinfo_SN_194" vType="truck" speedFactor="0.94" vaporized=""/>
    <tripinfo id="NS_230" depart="231.00" departLane="2i_0" departPos="4.10" departSpeed="0.00" departDelay="1.00" arrival="317.00" arrivalLane="1o_0" arrivalPos="492.80" arrivalSpeed="10.45" duration="86.00" routeLength="995.90" waitingTime="0.00" waitingCount="0" stopTime="0.00" timeLoss="17.33" rerouteNo="0" devices="tripinfo_NS_230" vType="car" speedFactor="1.03" vaporized=""/>
    <tripinfo id="NS_242" depart="242.00" departLane="2i_0" departPos="4.10" departSpeed="0.00" departDelay="0.00" arrival="322.00" arrivalLane="4o_0" arrivalPos="492.80" arrivalSpeed="9.80" duration="80.00" routeLength="990.53" waitingTime="0.00" waitingCount="0" stopTime="0.00" timeLoss="7.73" rerouteNo="0" devices="tripinfo_NS_242" vType="car" speedFactor="0.98" vaporized=""/>