<?xml version="1.0" encoding="UTF-8"?>

<!-- generated on 2024-05-05 23:02:17 by Eclipse SUMO sumo Version 1.19.0
<configuration xmlns:xsi="http://www.w3.org/2001/XMLSchema-instance" xsi:noNamespaceSchemaLocation="http://sumo.dlr.de/xsd/sumoConfiguration.xsd">

    <input>
        <net-file value="twoone.net.xml"/>
        <route-files value="route_gen.rou.xml"/>
    </input>

    <output>
        <tripinfo-output value="tripinfo_epi445.xml"/>
    </output>

    <report>
        <no-warnings value="true"/>
    </report>

    <traci_server>
        <remote-port value="45777"/>
    </traci_server>

</configuration>
-->

<tripinfos xmlns:xsi="http://www.w3.org/2001/XMLSchema-instance" xsi:noNamespaceSchemaLocation="http://sumo.dlr.de/xsd/tripinfo_file.xsd">
    <tripinfo id="SN_2" depart="2.00" departLane="3i_0" departPos="4.10" departSpeed="0.00" departDelay="0.00" arrival="83.00" arrivalLane="4o_0" arrivalPos="492.80" arrivalSpeed="10.48" duration="81.00" routeLength="995.90" waitingTime="1.00" waitingCount="1" stopTime="0.00" timeLoss="14.49" rerouteNo="0" devices="tripinfo_SN_2" vType="car" speedFactor="1.06" vaporized=""/>
    <tripinfo id="WE_11" depart="11.00" departLane="1i_0" departPos="4.10" departSpeed="0.00" departDelay="0.00" arrival="85.00" arrivalLane="3o_0" arrivalPos="492.80" arrivalSpeed="11.27" duration="74.00" routeLength="990.53" waitingTime="0.00" waitingCount="0" stopTime="0.00" timeLoss="8.72" rerouteNo="0" devices="tripinfo_WE_11" vType="car" speedFactor="1.08" vaporized=""/>
    <tripinfo id="WE_8" depart="8.00" departLane="1i_0" departPos="4.10" departSpeed="0.00" departDelay="0.00" arrival="86.00" arrivalLane="2o_0" arrivalPos="492.80" arrivalSpeed="10.17" duration="78.00" routeLength="995.90" waitingTime="0.00" waitingCount="0" stopTime="0.00" timeLoss="7.85" rerouteNo="0" devices="tripinfo_WE_8" vType="car" speedFactor="1.01" vaporized=""/>
    <tripinfo id="NS_7" depart="7.00" departLane="2i_0" departPos="4.10" departSpeed="0.00" departDelay="0.00" arrival="93.00" arrivalLane="4o_0" arrivalPos="492.80" arrivalSpeed="10.29" duration="86.00" routeLength="990.53" waitingTime="0.00" waitingCount="0" stopTime="0.00" timeLoss="10.85" rerouteNo="0" devices="tripinfo_NS_7" vType="car" speedFactor="0.94" vaporized=""/>
    <tripinfo id="SN_13" depart="13.00" departLane="3i_0" departPos="4.10" departSpeed="0.00" departDelay="0.00" arrival="96.00" arrivalLane="2o_0" arrivalPos="492.80" arrivalSpeed="11.36" duration="83.00" routeLength="990.53" waitingTime="1.00" waitingCount="1" stopTime="0.00" timeLoss="14.31" rerouteNo="0" devices="tripinfo_SN_13" vType="car" speedFactor="1.03" vaporized=""/>
    <tripinfo id="WE_27" depart="27.00" departLane="1i_0" departPos="4.10" departSpeed="0.00" departDelay="0.00" arrival="101.00" arrivalLane="3o_0" arrivalPos="492.80" arrivalSpeed="11.48" duration="74.00" routeLength="990.53" waitingTime="0.00" waitingCount="0" stopTime="0.00" timeLoss="8.62" rerouteNo="0" devices="tripinfo_WE_27" vType="car" speedFactor="1.09" vaporized=""/>
    <tripinfo id="NS_26" depart="26.00" departLane="2i_0" departPos="4.10" departSpeed="0.00" departDelay="0.00" arrival="117.00" arrivalLane="4o_0" arrivalPos="492.80" arrivalSpeed="8.24" duration="91.00" routeLength="990.53" waitingTime="0.00" waitingCount="0" stopTime="0.00" timeLoss="8.82" rerouteNo="0" devices="tripinfo_NS_26" vType="car" speedFactor="0.86" vaporized=""/>
    <tripinfo id="SN_15" depart="16.00" departLane="3i_0" departPos="4.10" departSpeed="0.00" departDelay="1.00" arrival="118.00" arrivalLane="1o_0" arrivalPos="492.80" arrivalSpeed="8.48" duration="102.00" routeLength="995.70" waitingTime="1.00" waitingCount="1" stopTime="0.00" timeLoss="16.72" rerouteNo="0" devices="tripinfo_SN_15" vType="car" speedFactor="0.83" vaporized=""/>
    <tripinfo id="NS_36" depart="36.00" departLane="2i_0" departPos="10.10" departSpeed="0.00" departDelay="0.00" arrival="119.00" arrivalLane="4o_0" arrivalPos="492.80" arrivalSpeed="10.48" duration="83.00" routeLength="984.53" waitingTime="0.00" waitingCount="0" stopTime="0.00" timeLoss="14.02" rerouteNo="0" devices="tripinfo_NS_36" vType="truck" speedFactor="1.01" vaporized=""/>
    <tripinfo id="NS_43" depart="43.00" departLane="2i_0" departPos="4.10" departSpeed="0.00" departDelay="0.00" arrival="120.00" arrivalLane="1o_0" arrivalPos="492.80" arrivalSpeed="11.86" duration="77.00" routeLength="995.90" waitingTime="0.00" waitingCount="0" stopTime="0.00" timeLoss="15.24" rerouteNo="0" devices="tripinfo_NS_43" vType="car" speedFactor="1.16" vaporized=""/>
    <tripinfo id="NS_37" depart="40.00" departLane="2i_0" departPos="4.10" departSpeed="0.00" departDelay="3.00" arrival="122.00" arrivalLane="4o_0" arrivalPos="492.80" arrivalSpeed="12.46" duration="82.00" routeLength="990.53" waitingTime="0.00" waitingCount="0" stopTime="0.00" timeLoss="18.51" rerouteNo="0" devices="tripinfo_NS_37" vType="car" speedFactor="1.12" vaporized=""/>
    <tripinfo id="WE_42" depart="42.00" departLane="1i_0" departPos="4.10" departSpeed="0.00" departDelay="0.00" arrival="126.00" arrivalLane="2o_0" arrivalPos="492.80" arrivalSpeed="9.85" duration="84.00" routeLength="995.90" waitingTime="0.00" waitingCount="0" stopTime="0.00" timeLoss="8.82" rerouteNo="0" devices="tripinfo_WE_42" vType="car" speedFactor="0.94" vaporized=""/>
    <tripinfo id="NS_50" depart="50.00" departLane="2i_0" departPos="4.10" departSpeed="0.00" departDelay="0.00" arrival="129.00" arrivalLane="3o_0" arrivalPos="492.80" arrivalSpeed="10.04" duration="79.00" routeLength="995.70" waitingTime="0.00" waitingCount="0" stopTime="0.00" timeLoss="9.02" rerouteNo="0" devices="tripinfo_NS_50" vType="car" speedFactor="1.01" vaporized=""/>
    <tripinfo id="WE_65" depart="65.00" departLane="1i_0" departPos="4.10" departSpeed="0.00" departDelay="0.00" arrival="146.00" arrivalLane="2o_0" arrivalPos="492.80" arrivalSpeed="10.55" duration="81.00" routeLength="995.90" waitingTime="0.00" waitingCount="0" stopTime="0.00" timeLoss="8.32" rerouteNo="0" devices="tripinfo_WE_65" vType="car" speedFactor="0.97" vaporized=""/>
    <tripinfo id="WE_67" depart="68.00" departLane="1i_0" departPos="4.10" departSpeed="0.00" departDelay="1.00" arrival="156.00" arrivalLane="3o_0" arrivalPos="492.80" arrivalSpeed="8.73" duration="88.00" routeLength="990.53" waitingTime="0.00" waitingCount="0" stopTime="0.00" timeLoss="8.95" rerouteNo="0" devices="tripinfo_WE_67" vType="car" speedFactor="0.89" vaporized=""/>
    <tripinfo id="NS_78" depart="78.00" departLane="2i_0" departPos="10.10" departSpeed="0.00" departDelay="0.00" arrival="183.00" arrivalLane="4o_0" arrivalPos="492.80" arrivalSpeed="10.32" duration="105.00" routeLength="984.53" waitingTime="11.00" waitingCount="1" stopTime="0.00" timeLoss="32.64" rerouteNo="0" devices="tripinfo_NS_78" vType="truck" speedFactor="0.97" vaporized=""/>
    <tripinfo id="NS_73" depart="73.00" departLane="2i_0" departPos="4.10" departSpeed="0.00" departDelay="0.00" arrival="185.00" arrivalLane="3o_0" arrivalPos="492.80" arrivalSpeed="9.01" duration="112.00" routeLength="995.70" waitingTime="18.00" waitingCount="1" stopTime="0.00" timeLoss="30.88" rerouteNo="0" devices="tripinfo_NS_73" vType="car" speedFactor="0.87" vaporized=""/>
    <tripinfo id="NS_86" depart="86.00" departLane="2i_0" departPos="4.10" departSpeed="0.00" departDelay="0.00" arrival="186.00" arrivalLane="4o_0" arrivalPos="492.80" arrivalSpeed="11.87" duration="100.00" routeLength="990.53" waitingTime="10.00" waitingCount="1" stopTime="0.00" timeLoss="38.26" rerouteNo="0" devices="tripinfo_NS_86" vType="car" speedFactor="1.15" vaporized=""/>
    <tripinfo id="NS_87" depart="88.00" departLane="2i_0" departPos="4.10" departSpeed="0.00" departDelay="1.00" arrival="188.00" arrivalLane="1o_0" arrivalPos="492.80" arrivalSpeed="10.98" duration="100.00" routeLength="995.90" waitingTime="8.00" waitingCount="1" stopTime="0.00" timeLoss="28.92" rerouteNo="0" devices="tripinfo_NS_87" vType="car" speedFactor="1.01" vaporized=""/>
    <tripinfo id="NS_95" depart="96.00" departLane="2i_0" departPos="4.10" departSpeed="0.00" departDelay="1.00" arrival="190.00" arrivalLane="4o_0" arrivalPos="492.80" arrivalSpeed="9.90" duration="94.00" routeLength="990.53" waitingTime="4.00" waitingCount="1" stopTime="0.00" timeLoss="22.59" rerouteNo="0" devices="tripinfo_NS_95" vType="car" speedFactor="0.99" vaporized=""/>
    <tripinfo id="WE_101" depart="101.00" departLane="1i_0" departPos="4.10" departSpeed="0.00" departDelay="0.00" arrival="190.00" arrivalLane="3o_0" arrivalPos="492.80" arrivalSpeed="11.89" duration="89.00" routeLength="990.53" waitingTime="15.00" waitingCount="1" stopTime="0.00" timeLoss="29.55" rerouteNo="0" devices="tripinfo_WE_101" vType="car" speedFactor="1.18" vaporized=""/>
    <tripinfo id="WE_76" depart="76.00" departLane="1i_0" departPos="4.10" departSpeed="0.00" departDelay="0.00" arrival="197.00" arrivalLane="2o_0" arrivalPos="492.80" arrivalSpeed="10.43" duration="121.00" routeLength="995.90" waitingTime="31.00" waitingCount="1" stopTime="0.00" timeLoss="46.27" rerouteNo="0" devices="tripinfo_WE_76" vType="car" speedFactor="0.95" vaporized=""/>
    <tripinfo id="WE_68" depart="71.00" departLane="1i_0" departPos="4.10" departSpeed="0.00" departDelay="3.00" arrival="203.00" arrivalLane="4o_0" arrivalPos="492.80" arrivalSpeed="8.33" duration="132.00" routeLength="995.70" waitingTime="33.00" waitingCount="1" stopTime="0.00" timeLoss="46.47" rerouteNo="0" devices="tripinfo_WE_68" vType="car" speedFactor="0.83" vaporized=""/>
    <tripinfo id="WE_88" depart="88.00" departLane="1i_0" departPos="4.10" departSpeed="0.00" departDelay="0.00" arrival="205.00" arrivalLane="4o_0" arrivalPos="492.80" arrivalSpeed="12.76" duration="117.00" routeLength="995.70" waitingTime="27.00" waitingCount="1" stopTime="0.00" timeLoss="56.07" rerouteNo="0" devices="tripinfo_WE_88" vType="car" speedFactor="1.17" vaporized=""/>
    <tripinfo id="NS_117" depart="117.00" departLane="2i_0" departPos="10.10" departSpeed="0.00" departDelay="0.00" arrival="238.00" arrivalLane="3o_0" arrivalPos="492.80" arrivalSpeed="11.32" duration="121.00" routeLength="989.70" waitingTime="32.00" waitingCount="1" stopTime="0.00" timeLoss="53.20" rerouteNo="0" devices="tripinfo_NS_117" vType="truck" speedFactor="1.05" vaporized=""/>
    <tripinfo id="NS_119" depart="121.00" departLane="2i_0" departPos="4.10" departSpeed="0.00" departDelay="2.00" arrival="240.00" arrivalLane="4o_0" arrivalPos="492.80" arrivalSpeed="11.18" duration="119.00" routeLength="990.53" waitingTime="31.00" waitingCount="1" stopTime="0.00" timeLoss="50.63" rerouteNo="0" devices="tripinfo_NS_119" vType="car" speedFactor="1.04" vaporized=""/>
    <tripinfo id="NS_137" depart="137.00" departLane="2i_0" departPos="4.10" departSpeed="0.00" departDelay="0.00" arrival="241.00" arrivalLane="3o_0" arrivalPos="492.80" arrivalSpeed="11.95" duration="104.00" routeLength="995.70" waitingTime="24.00" waitingCount="1" stopTime="0.00" timeLoss="43.28" rerouteNo="0" devices="tripinfo_NS_137" vType="car" speedFactor="1.17" vaporized=""/>
    <tripinfo id="NS_124" depart="126.00" departLane="2i_0" departPos="10.10" departSpeed="0.00" departDelay="2.00" arrival="246.00" arrivalLane="4o_0" arrivalPos="492.80" arrivalSpeed="10.14" duration="120.00" routeLength="984.53" waitingTime="24.00" waitingCount="1" stopTime="0.00" timeLoss="46.24" rerouteNo="0" devices="tripinfo_NS_124" vType="truck" speedFactor="0.95" vaporized=""/>
    <tripinfo id="NS_149" depart="149.00" departLane="2i_0" departPos="4.10" departSpeed="0.00" departDelay="0.00" arrival="248.00" arrivalLane="3o_0" arrivalPos="492.80" arrivalSpeed="11.66" duration="99.00" routeLength="995.70" waitingTime="12.00" waitingCount="1" stopTime="0.00" timeLoss="36.70" rerouteNo="0" devices="tripinfo_NS_149" vType="car" speedFactor="1.14" vaporized=""/>
    <tripinfo id="NS_143" depart="143.00" departLane="2i_0" departPos="4.10" departSpeed="0.00" departDelay="0.00" arrival="249.00" arrivalLane="1o_0" arrivalPos="492.80" arrivalSpeed="10.69" duration="106.00" routeLength="995.90" waitingTime="17.00" waitingCount="1" stopTime="0.00" timeLoss="35.15" rerouteNo="0" devices="tripinfo_NS_143" vType="car" speedFactor="1.00" vaporized=""/>
    <tripinfo id="NS_152" depart="152.00" departLane="2i_0" departPos="4.10" departSpeed="0.00" departDelay="0.00" arrival="252.00" arrivalLane="3o_0" arrivalPos="492.80" arrivalSpeed="11.67" duration="100.00" routeLength="995.70" waitingTime="11.00" waitingCount="1" stopTime="0.00" timeLoss="34.40" rerouteNo="0" devices="tripinfo_NS_152" vType="car" speedFactor="1.08" vaporized=""/>
    <tripinfo id="WE_103" depart="104.00" departLane="1i_0" departPos="4.10" departSpeed="0.00" departDelay="1.00" arrival="257.00" arrivalLane="4o_0" arrivalPos="492.80" arrivalSpeed="11.51" duration="153.00" routeLength="995.70" waitingTime="69.00" waitingCount="2" stopTime="0.00" timeLoss="88.44" rerouteNo="0" devices="tripinfo_WE_103" vType="car" speedFactor="1.10" vaporized=""/>
    <tripinfo id="NS_144" depart="146.00" departLane="2i_0" departPos="4.10" departSpeed="0.00" departDelay="2.00" arrival="257.00" arrivalLane="1o_0" arrivalPos="492.80" arrivalSpeed="9.97" duration="111.00" routeLength="995.90" waitingTime="12.00" waitingCount="1" stopTime="0.00" timeLoss="32.36" rerouteNo="0" devices="tripinfo_NS_144" vType="car" speedFactor="0.90" vaporized=""/>
    <tripinfo id="NS_155" depart="155.00" departLane="2i_0" departPos="4.10" departSpeed="0.00" departDelay="0.00" arrival="259.00" arrivalLane="1o_0" arrivalPos="492.80" arrivalSpeed="10.59" duration="104.00" routeLength="995.90" waitingTime="10.00" waitingCount="1" stopTime="0.00" timeLoss="33.97" rerouteNo="0" devices="tripinfo_NS_155" vType="car" speedFactor="1.02" vaporized=""/>
    <tripinfo id="SN_39" depart="39.00" departLane="3i_0" departPos="4.10" departSpeed="0.00" departDelay="0.00" arrival="263.00" arrivalLane="2o_0" arrivalPos="492.80" arrivalSpeed="9.55" duration="224.00" routeLength="990.53" waitingTime="134.00" waitingCount="1" stopTime="0.00" timeLoss="148.07" rerouteNo="0" devices="tripinfo_SN_39" vType="car" speedFactor="0.93" vaporized=""/>
    <tripinfo id="SN_74" depart="74.00" departLane="3i_0" departPos="4.10" departSpeed="0.00" departDelay="0.00" arrival="268.00" arrivalLane="4o_0" arrivalPos="492.80" arrivalSpeed="9.86" duration="194.00" routeLength="995.90" waitingTime="101.00" waitingCount="1" stopTime="0.00" timeLoss="116.64" rerouteNo="0" devices="tripinfo_SN_74" vType="car" speedFactor="0.92" vaporized=""/>
    <tripinfo id="EW_20" depart="20.00" departLane="4i_0" departPos="10.10" departSpeed="0.00" departDelay="0.00" arrival="270.00" arrivalLane="2o_0" arrivalPos="492.80" arrivalSpeed="10.81" duration="250.00" routeLength="989.70" waitingTime="156.00" waitingCount="2" stopTime="0.00" timeLoss="180.53" rerouteNo="0" devices="tripinfo_EW_20" vType="truck" speedFactor="1.02" vaporized=""/>
    <tripinfo id="SN_76" depart="76.00" departLane="3i_0" departPos="4.10" departSpeed="0.00" departDelay="0.00" arrival="270.00" arrivalLane="4o_0" arrivalPos="492.80" arrivalSpeed="11.45" duration="194.00" routeLength="995.90" waitingTime="100.00" waitingCount="1" stopTime="0.00" timeLoss="130.85" rerouteNo="0" devices="tripinfo_SN_76" vType="car" speedFactor="1.13" vaporized=""/>
    <tripinfo id="NS_157" depart="158.00" departLane="2i_0" departPos="10.10" departSpeed="0.00" departDelay="1.00" arrival="272.00" arrivalLane="4o_0" arrivalPos="492.80" arrivalSpeed="10.82" duration="114.00" routeLength="984.53" waitingTime="5.00" waitingCount="4" stopTime="0.00" timeLoss="43.47" rerouteNo="0" devices="tripinfo_NS_157" vType="truck" speedFactor="0.99" vaporized=""/>
    <tripinfo id="WE_122" depart="122.00" departLane="1i_0" departPos="10.10" departSpeed="0.00" departDelay="0.00" arrival="275.00" arrivalLane="2o_0" arrivalPos="492.80" arrivalSpeed="10.88" duration="153.00" routeLength="989.90" waitingTime="58.00" waitingCount="3" stopTime="0.00" timeLoss="83.78" rerouteNo="0" devices="tripinfo_WE_122" vType="truck" speedFactor="1.02" vaporized=""/>
    <tripinfo id="WE_144" depart="144.00" departLane="1i_0" departPos="4.10" departSpeed="0.00" departDelay="0.00" arrival="278.00" arrivalLane="3o_0" arrivalPos="492.80" arrivalSpeed="9.87" duration="134.00" routeLength="990.53" waitingTime="41.00" waitingCount="2" stopTime="0.00" timeLoss="63.42" rerouteNo="0" devices="tripinfo_WE_144" vType="car" speedFactor="1.00" vaporized=""/>
    <tripinfo id="SN_96" depart="96.00" departLane="3i_0" departPos="10.10" departSpeed="0.00" departDelay="0.00" arrival="281.00" arrivalLane="4o_0" arrivalPos="492.80" arrivalSpeed="10.71" duration="185.00" routeLength="989.90" waitingTime="80.00" waitingCount="2" stopTime="0.00" timeLoss="115.49" rerouteNo="0" devices="tripinfo_SN_96" vType="truck" speedFactor="1.01" vaporized=""/>
    <tripinfo id="WE_151" depart="151.00" departLane="1i_0" departPos="10.10" departSpeed="0.00" departDelay="0.00" arrival="287.00" arrivalLane="2o_0" arrivalPos="492.80" arrivalSpeed="11.18" duration="136.00" routeLength="989.90" waitingTime="29.00" waitingCount="3" stopTime="0.00" timeLoss="65.94" rerouteNo="0" devices="tripinfo_WE_151" vType="truck" speedFactor="1.01" vaporized=""/>
    <tripinfo id="WE_152" depart="155.00" departLane="1i_0" departPos="4.10" departSpeed="0.00" departDelay="3.00" arrival="291.00" arrivalLane="3o_0" arrivalPos="492.80" arrivalSpeed="9.54" duration="136.00" routeLength="990.53" waitingTime="26.00" waitingCount="2" stopTime="0.00" timeLoss="62.90" rerouteNo="0" devices="tripinfo_WE_152" vType="car" speedFactor="0.97" vaporized=""/>
    <tripinfo id="WE_176" depart="176.00" departLane="1i_0" departPos="4.10" departSpeed="0.00" departDelay="0.00" arrival="292.00" arrivalLane="3o_0" arrivalPos="492.80" arrivalSpeed="10.28" duration="116.00" routeLength="990.53" waitingTime="13.00" waitingCount="2" stopTime="0.00" timeLoss="47.31" rerouteNo="0" devices="tripinfo_WE_176" vType="car" speedFactor="1.02" vaporized=""/>
    <tripinfo id="WE_173" depart="173.00" departLane="1i_0" departPos="4.10" departSpeed="0.00" departDelay="0.00" arrival="296.00" arrivalLane="2o_0" arrivalPos="492.80" arrivalSpeed="9.26" duration="123.00" routeLength="995.90" waitingTime="14.00" waitingCount="2" stopTime="0.00" timeLoss="45.86" rerouteNo="0" devices="tripinfo_WE_173" vType="car" speedFactor="0.91" vaporized=""/>
    <tripinfo id="WE_177" depart="179.00" departLane="1i_0" departPos="4.10" departSpeed="0.00" departDelay="2.00" arrival="296.00" arrivalLane="3o_0" arrivalPos="492.80" arrivalSpeed="10.29" duration="117.00" routeLength="990.53" waitingTime="12.00" waitingCount="2" stopTime="0.00" timeLoss="44.69" rerouteNo="0" devices="tripinfo_WE_177" vType="car" speedFactor="0.97" vaporized=""/>
    <tripinfo id="WE_179" depart="182.00" departLane="1i_0" departPos="4.10" departSpeed="0.00" departDelay="3.00" arrival="300.00" arrivalLane="2o_0" arrivalPos="492.80" arrivalSpeed="9.47" duration="118.00" routeLength="995.90" waitingTime="9.00" waitingCount="2" stopTime="0.00" timeLoss="42.71" rerouteNo="0" devices="tripinfo_WE_179" vType="car" speedFactor="0.94" vaporized=""/>
    <tripinfo id="WE_192" depart="192.00" departLane="1i_0" departPos="4.10" departSpeed="0.00" departDelay="0.00" arrival="302.00" arrivalLane="2o_0" arrivalPos="492.80" arrivalSpeed="9.79" duration="110.00" routeLength="995.90" waitingTime="3.00" waitingCount="1" stopTime="0.00" timeLoss="37.63" rerouteNo="0" devices="tripinfo_WE_192" vType="car" speedFactor="0.98" vaporized=""/>
    <tripinfo id="WE_219" depart="219.00" departLane="1i_0" departPos="4.10" departSpeed="0.00" departDelay="0.00" arrival="304.00" arrivalLane="2o_0" arrivalPos="492.80" arrivalSpeed="11.85" duration="85.00" routeLength="995.90" waitingTime="0.00" waitingCount="0" stopTime="0.00" timeLoss="22.66" rerouteNo="0" devices="tripinfo_WE_219" vType="car" speedFactor="1.15" vaporized=""/>
    <tripinfo id="NS_163" depart="163.00" departLane="2i_0" departPos="4.10" departSpeed="0.00" departDelay="0.00" arrival="308.00" arrivalLane="3o_0" arrivalPos="492.80" arrivalSpeed="10.31" duration="145.00" routeLength="995.70" waitingTime="30.00" waitingCount="2" stopTime="0.00" timeLoss="69.30" rerouteNo="0" devices="tripinfo_NS_163" vType="car" speedFactor="0.94" vaporized=""/>
    <tripinfo id="NS_165" depart="167.00" departLane="2i_0" departPos="10.10" departSpeed="0.00" departDelay="2.00" arrival="311.00" arrivalLane="4o_0" arrivalPos="492.80" arrivalSpeed="10.04" duration="144.00" routeLength="984.53" waitingTime="27.00" waitingCount="1" stopTime="0.00" timeLoss="69.51" rerouteNo="0" devices="tripinfo_NS_165" vType="truck" speedFactor="0.94" vaporized=""/>
    <tripinfo id="NS_171" depart="171.00" departLane="2i_0" departPos="4.10" departSpeed="0.00" departDelay="0.00" arrival="317.00" arrivalLane="1o_0" arrivalPos="492.80" arrivalSpeed="9.38" duration="146.00" routeLength="995.90" waitingTime="26.00" waitingCount="1" stopTime="0.00" timeLoss="67.44" rerouteNo="0" devices="tripinfo_NS_171" vType="car" speedFactor="0.91" vaporized=""/>
    <tripinfo id="NS_175" depart="175.00" departLane="2i_0" departPos="4.10" departSpeed="0.00" departDelay="0.00" arrival="319.00" arrivalLane="3o_0" arrivalPos="492.80" arrivalSpeed="10.43" duration="144.00" routeLength="995.70" waitingTime="26.00" waitingCount="2" stopTime="0.00" timeLoss="74.26" rerouteNo="0" devices="tripinfo_NS_175" vType="car" speedFactor="1.02" vaporized=""/>
    <tripinfo id="NS_182" depart="182.00" departLane="2i_0" departPos="4.10" departSpeed="0.00" departDelay="0.00" arrival="319.00" arrivalLane="4o_0" arrivalPos="492.80" arrivalSpeed="11.63" duration="137.00" routeLength="990.53" waitingTime="26.00" waitingCount="2" stopTime="0.00" timeLoss="70.05" rerouteNo="0" devices="tripinfo_NS_182" vType="car" speedFactor="1.06" vaporized=""/>
    <tripinfo id="NS_206" depart="206.00" departLane="2i_0" departPos="4.10" departSpeed="0.00" departDelay="0.00" arrival="322.00" arrivalLane="1o_0" arrivalPos="492.80" arrivalSpeed="11.00" duration="116.00" routeLength="995.90" waitingTime="22.00" waitingCount="1" stopTime="0.00" timeLoss="46.89" rerouteNo="0" devices="tripinfo_NS_206" vType="car" speedFactor="1.03" vaporized=""/>
    <tripinfo id="WE_234" depart="234.00" departLane="1i_0" departPos="4.10" departSpeed="0.00" departDelay="0.00" arrival="322.00" arrivalLane="2o_0" arrivalPos="492.80" arrivalSpeed="8.82" duration="88.00" routeLength="995.90" waitingTime="0.00" waitingCount="0" stopTime="0.00" timeLoss="8.88" rerouteNo="0" devices="tripinfo_WE_234" vType="car" speedFactor="0.89" vaporized=""/>
    <tripinfo id="NS_207" depart="208.00" departLane="2i_0" departPos="4.10" departSpeed="0.00" departDelay="1.00" arrival="325.00" arrivalLane="4o_0" arrivalPos="492.80" arrivalSpeed="9.95" duration="117.00" routeLength="990.53" waitingTime="22.00" waitingCount="1" stopTime="0.00" timeLoss="46.36" rerouteNo="0" devices="tripinfo_NS_207" vType="car" speedFactor="1.00" vaporized=""/>
    <tripinfo id="WE_244" depart="244.00" departLane="1i_0" departPos="10.10" departSpeed="0.00" departDelay="0.00" arrival="327.00" arrivalLane="2o_0" arrivalPos="492.80" arrivalSpeed="11.00" duration="83.00" routeLength="989.90" waitingTime="0.00" waitingCount="0" stopTime="0.00" timeLoss="12.52" rerouteNo="0" devices="tripinfo_WE_244" vType="truck" speedFactor="1.00" vaporized=""/>
    <tripinfo id="NS_230" depart="230.00" departLane="2i_0" departPos="4.10" departSpeed="0.00" departDelay="0.00" arrival="332.00" arrivalLane="3o_0" arrivalPos="492.80" arrivalSpeed="10.07" duration="102.00" routeLength="995.70" waitingTime="0.00" waitingCount="0" stopTime="0.00" timeLoss="32.88" rerouteNo="0" devices="tripinfo_NS_230" vType="car" speedFactor="1.02" vaporized=""/>
    <tripinfo id="NS_232" depart="232.00" departLane="2i_0" departPos="4.10" departSpeed="0.00" departDelay="0.00" arrival="334.00" arrivalLane="3o_0" arrivalPos="492.80" arrivalSpeed="10.30" duration="102.00" routeLength="995.70" waitingTime="1.00" waitingCount="1" stopTime="0.00" timeLoss="32.37" rerouteNo="0" devices="tripinfo_NS_232" vType="car" speedFactor="1.02" vaporized=""/>
    <tripinfo id="NS_257" depart="257.00" departLane="2i_0" departPos="4.10" departSpeed="0.00" departDelay="0.00" arrival="334.00" arrivalLane="1o_0" arrivalPos="492.80" arrivalSpeed="11.79" duration="77.00" routeLength="995.90" waitingTime="0.00" waitingCount="0" stopTime="0.00" timeLoss="12.33" rerouteNo="0" devices="tripinfo_NS_257" vType="car" speedFactor="1.10" vaporized=""/>
    <tripinfo id="NS_243" depart="243.00" departLane="2i_0" departPos="4.10" departSpeed="0.00" departDelay="0.00" arrival="336.00" arrivalLane="3o_0" arrivalPos="492.80" arrivalSpeed="10.83" duration="93.00" routeLength="995.70" waitingTime="0.00" waitingCount="0" stopTime="0.00" timeLoss="25.59" rerouteNo="0" devices="tripinfo_NS_243" vType="car" speedFactor="1.06" vaporized=""/>
    <tripinfo id="NS_258" depart="260.00" departLane="2i_0" departPos="4.10" departSpeed="0.00" departDelay="2.00" arrival="338.00" arrivalLane="1o_0" arrivalPos="492.80" arrivalSpeed="11.19" duration="78.00" routeLength="995.90" waitingTime="0.00" waitingCount="0" stopTime="0.00" timeLoss="10.96" rerouteNo="0" devices="tripinfo_NS_258" vType="car" speedFactor="1.06" vaporized=""/>
    <tripinfo id="WE_265" depart="265.00" departLane="1i_0" departPos="4.10" departSpeed="0.00" departDelay="0.00" arrival="344.00" arrivalLane="2o_0" arrivalPos="492.80" arrivalSpeed="11.16" duration="79.00" routeLength="995.90" waitingTime="0.00" waitingCount="0" stopTime="0.00" timeLoss="12.85" rerouteNo="0" devices="tripinfo_WE_265" vType="car" speedFactor="1.07" vaporized=""/>
    <tripinfo id="NS_259" depart="263.00" departLane="2i_0" departPos="4.10" departSpeed="0.00" departDelay="4.00" arrival="345.00" arrivalLane="4o_0" arrivalPos="492.80" arrivalSpeed="10.19" duration="82.00" routeLength="990.53" waitingTime="0.00" waitingCount="0" stopTime="0.00" timeLoss="8.81" rerouteNo="0" devices="tripinfo_NS_259" vType="car" speedFactor="0.97" vaporized=""/>
    <tripinfo id="WE_261" depart="261.00" departLane="1i_0" departPos="4.10" departSpeed="0.00" departDelay="0.00" arrival="348.00" arrivalLane="4o_0" arrivalPos="492.80" arrivalSpeed="9.55" duration="87.00" routeLength="995.70" waitingTime="0.00" waitingCount="0" stopTime="0.00" timeLoss="12.34" rerouteNo="0" devices="tripinfo_WE_261" vType="car" speedFactor="0.95" vaporized=""/>
    <tripinfo id="WE_279" depart="279.00" departLane="1i_0" departPos="4.10" departSpeed="0.00" departDelay="0.00" arrival="354.00" arrivalLane="3o_0" arrivalPos="492.80" arrivalSpeed="11.23" duration="75.00" routeLength="990.53" waitingTime="0.00" waitingCount="0" stopTime="0.00" timeLoss="8.30" rerouteNo="0" devices="tripinfo_WE_279" vType="car" speedFactor="1.06" vaporized=""/>
    <tripinfo id="NS_278" depart="278.00" departLane="2i_0" departPos="4.10" departSpeed="0.00" departDelay="0.00" arrival="355.00" arrivalLane="1o_0" arrivalPos="492.80" arrivalSpeed="10.39" duration="77.00" routeLength="995.90" waitingTime="0.00" waitingCount="0" stopTime="0.00" timeLoss="8.41" rerouteNo="0" devices="tripinfo_NS_278" vType="car" speedFactor="1.03" vaporized=""/>
    <tripinfo id="NS_282" depart="282.00" departLane="2i_0" departPos="4.10" departSpeed="0.00" departDelay="0.00" arrival="364.00" arrivalLane="4o_0" arrivalPos="492.80" arrivalSpeed="9.78" duration="82.00" routeLength="990.53" waitingTime="0.00" waitingCount="0" stopTime="0.00" timeLoss="7.98" rerouteNo="0" devices="tripinfo_NS_282" vType="car" speedFactor="0.96" vaporized=""/>
    <tripinfo id="WE_291" depart="291.00" departLane="1i_0" departPos="4.10" departSpeed="0.00" departDelay="0.00" arrival="371.00" arrivalLane="2o_0" arrivalPos="492.80" arrivalSpeed="10.57" duration="80.00" routeLength="995.90" waitingTime="0.00" waitingCount="0" stopTime="0.00" timeLoss="10.01" rerouteNo="0" devices="tripinfo_WE_291" vType="car" speedFactor="1.01" vaporized=""/>
    <tripinfo id="WE_287" depart="287.00" departLane="1i_0" departPos="4.10" departSpeed="0.00" departDelay="0.00" arrival="377.00" arrivalLane="3o_0" arrivalPos="492.80" arrivalSpeed="9.17" duration="90.00" routeLength="990.53" waitingTime="0.00" waitingCount="0" stopTime="0.00" timeLoss="8.87" rerouteNo="0" devices="tripinfo_WE_287" vType="car" speedFactor="0.87" vaporized=""/>
    <tripinfo id="WE_309" depart="309.00" departLane="1i_0" departPos="4.10" departSpeed="0.00" departDelay="0.00" arrival="383.00" arrivalLane="3o_0" arrivalPos="492.80" arrivalSpeed="11.68" duration="74.00" routeLength="990.53" waitingTime="0.00" waitingCount="0" stopTime="0.00" timeLoss="8.41" rerouteNo="0" devices="tripinfo_WE_309" vType="car" speedFactor="1.07" vaporized=""/>
    <tripinfo id="WE_305" depart="305.00" departLane="1i_0" departPos="4.10" departSpeed="0.00" departDelay="0.00" arrival="385.00" arrivalLane="2o_0" arrivalPos="492.80" arrivalSpeed="10.12" duration="80.00" routeLength="995.90" waitingTime="0.00" waitingCount="0" stopTime="0.00" timeLoss="8.59" rerouteNo="0" devices="tripinfo_WE_305" vType="car" speedFactor="0.99" vaporized=""/>
    <tripinfo id="WE_318" depart="318.00" departLane="1i_0" departPos="4.10" departSpeed="0.00" departDelay="0.00" arrival="393.00" arrivalLane="3o_0" arrivalPos="492.80" arrivalSpeed="11.65" duration="75.00" routeLength="990.53" waitingTime="0.00" waitingCount="0" stopTime="0.00" timeLoss="8.19" rerouteNo="0" devices="tripinfo_WE_318" vType="car" speedFactor="1.06" vaporized=""/>