<?xml version="1.0" encoding="UTF-8"?>

<!-- generated on 2024-05-05 21:36:06 by Eclipse SUMO sumo Version 1.19.0
<configuration xmlns:xsi="http://www.w3.org/2001/XMLSchema-instance" xsi:noNamespaceSchemaLocation="http://sumo.dlr.de/xsd/sumoConfiguration.xsd">

    <input>
        <net-file value="twoone.net.xml"/>
        <route-files value="route_gen.rou.xml"/>
    </input>

    <output>
        <tripinfo-output value="tripinfo_epi61.xml"/>
    </output>

    <report>
        <no-warnings value="true"/>
    </report>

    <traci_server>
        <remote-port value="46315"/>
    </traci_server>

</configuration>
-->

<tripinfos xmlns:xsi="http://www.w3.org/2001/XMLSchema-instance" xsi:noNamespaceSchemaLocation="http://sumo.dlr.de/xsd/tripinfo_file.xsd">
    <tripinfo id="SN_0" depart="0.00" departLane="3i_0" departPos="4.10" departSpeed="0.00" departDelay="0.00" arrival="78.00" arrivalLane="2o_0" arrivalPos="492.80" arrivalSpeed="11.73" duration="78.00" routeLength="990.53" waitingTime="0.00" waitingCount="0" stopTime="0.00" timeLoss="11.33" rerouteNo="0" devices="tripinfo_SN_0" vType="car" speedFactor="1.06" vaporized=""/>
    <tripinfo id="WE_14" depart="14.00" departLane="1i_0" departPos="4.10" departSpeed="0.00" departDelay="0.00" arrival="91.00" arrivalLane="4o_0" arrivalPos="492.80" arrivalSpeed="10.89" duration="77.00" routeLength="995.70" waitingTime="0.00" waitingCount="0" stopTime="0.00" timeLoss="9.26" rerouteNo="0" devices="tripinfo_WE_14" vType="car" speedFactor="1.05" vaporized=""/>
    <tripinfo id="NS_23" depart="23.00" departLane="2i_0" departPos="4.10" departSpeed="0.00" departDelay="0.00" arrival="98.00" arrivalLane="3o_0" arrivalPos="492.80" arrivalSpeed="11.18" duration="75.00" routeLength="995.70" waitingTime="0.00" waitingCount="0" stopTime="0.00" timeLoss="9.56" rerouteNo="0" devices="tripinfo_NS_23" vType="car" speedFactor="1.09" vaporized=""/>
    <tripinfo id="NS_14" depart="14.00" departLane="2i_0" departPos="4.10" departSpeed="0.00" departDelay="0.00" arrival="103.00" arrivalLane="1o_0" arrivalPos="492.80" arrivalSpeed="9.07" duration="89.00" routeLength="995.90" waitingTime="0.00" waitingCount="0" stopTime="0.00" timeLoss="9.28" rerouteNo="0" devices="tripinfo_NS_14" vType="car" speedFactor="0.89" vaporized=""/>
    <tripinfo id="WE_30" depart="30.00" departLane="1i_0" departPos="4.10" departSpeed="0.00" departDelay="0.00" arrival="108.00" arrivalLane="4o_0" arrivalPos="492.80" arrivalSpeed="11.52" duration="78.00" routeLength="995.70" waitingTime="0.00" waitingCount="0" stopTime="0.00" timeLoss="10.16" rerouteNo="0" devices="tripinfo_WE_30" vType="car" speedFactor="1.05" vaporized=""/>
    <tripinfo id="WE_36" depart="36.00" departLane="1i_0" departPos="4.10" departSpeed="0.00" departDelay="0.00" arrival="108.00" arrivalLane="2o_0" arrivalPos="492.80" arrivalSpeed="11.94" duration="72.00" routeLength="995.90" waitingTime="0.00" waitingCount="0" stopTime="0.00" timeLoss="10.15" rerouteNo="0" devices="tripinfo_WE_36" vType="car" speedFactor="1.16" vaporized=""/>
    <tripinfo id="WE_32" depart="33.00" departLane="1i_0" departPos="4.10" departSpeed="0.00" departDelay="1.00" arrival="113.00" arrivalLane="3o_0" arrivalPos="492.80" arrivalSpeed="10.96" duration="80.00" routeLength="990.53" waitingTime="0.00" waitingCount="0" stopTime="0.00" timeLoss="8.39" rerouteNo="0" devices="tripinfo_WE_32" vType="car" speedFactor="0.99" vaporized=""/>
    <tripinfo id="WE_40" depart="40.00" departLane="1i_0" departPos="4.10" departSpeed="0.00" departDelay="0.00" arrival="117.00" arrivalLane="3o_0" arrivalPos="492.80" arrivalSpeed="10.15" duration="77.00" routeLength="990.53" waitingTime="0.00" waitingCount="0" stopTime="0.00" timeLoss="8.01" rerouteNo="0" devices="tripinfo_WE_40" vType="car" speedFactor="1.02" vaporized=""/>
    <tripinfo id="NS_34" depart="34.00" departLane="2i_0" departPos="4.10" departSpeed="0.00" departDelay="0.00" arrival="125.00" arrivalLane="3o_0" arrivalPos="492.80" arrivalSpeed="9.76" duration="91.00" routeLength="995.70" waitingTime="2.00" waitingCount="1" stopTime="0.00" timeLoss="15.44" rerouteNo="0" devices="tripinfo_NS_34" vType="car" speedFactor="0.94" vaporized=""/>
    <tripinfo id="NS_35" depart="37.00" departLane="2i_0" departPos="4.10" departSpeed="0.00" departDelay="2.00" arrival="127.00" arrivalLane="1o_0" arrivalPos="492.80" arrivalSpeed="9.40" duration="90.00" routeLength="995.90" waitingTime="0.00" waitingCount="0" stopTime="0.00" timeLoss="13.92" rerouteNo="0" devices="tripinfo_NS_35" vType="car" speedFactor="0.94" vaporized=""/>
    <tripinfo id="NS_48" depart="48.00" departLane="2i_0" departPos="4.10" departSpeed="0.00" departDelay="0.00" arrival="137.00" arrivalLane="4o_0" arrivalPos="492.80" arrivalSpeed="9.34" duration="89.00" routeLength="990.53" waitingTime="0.00" waitingCount="0" stopTime="0.00" timeLoss="9.05" rerouteNo="0" devices="tripinfo_NS_48" vType="car" speedFactor="0.89" vaporized=""/>
    <tripinfo id="NS_62" depart="62.00" departLane="2i_0" departPos="4.10" departSpeed="0.00" departDelay="0.00" arrival="138.00" arrivalLane="4o_0" arrivalPos="492.80" arrivalSpeed="10.99" duration="76.00" routeLength="990.53" waitingTime="0.00" waitingCount="0" stopTime="0.00" timeLoss="16.03" rerouteNo="0" devices="tripinfo_NS_62" vType="car" speedFactor="1.18" vaporized=""/>
    <tripinfo id="NS_49" depart="51.00" departLane="2i_0" departPos="4.10" departSpeed="0.00" departDelay="2.00" arrival="145.00" arrivalLane="1o_0" arrivalPos="492.80" arrivalSpeed="8.65" duration="94.00" routeLength="995.90" waitingTime="0.00" waitingCount="0" stopTime="0.00" timeLoss="8.14" rerouteNo="0" devices="tripinfo_NS_49" vType="car" speedFactor="0.83" vaporized=""/>
    <tripinfo id="WE_56" depart="56.00" departLane="1i_0" departPos="10.10" departSpeed="0.00" departDelay="0.00" arrival="146.00" arrivalLane="4o_0" arrivalPos="492.80" arrivalSpeed="10.40" duration="90.00" routeLength="989.70" waitingTime="0.00" waitingCount="0" stopTime="0.00" timeLoss="17.48" rerouteNo="0" devices="tripinfo_WE_56" vType="truck" speedFactor="0.97" vaporized=""/>
    <tripinfo id="WE_66" depart="66.00" departLane="1i_0" departPos="4.10" departSpeed="0.00" departDelay="0.00" arrival="148.00" arrivalLane="4o_0" arrivalPos="492.80" arrivalSpeed="11.75" duration="82.00" routeLength="995.70" waitingTime="0.00" waitingCount="0" stopTime="0.00" timeLoss="20.54" rerouteNo="0" devices="tripinfo_WE_66" vType="car" speedFactor="1.15" vaporized=""/>
    <tripinfo id="NS_78" depart="78.00" departLane="2i_0" departPos="4.10" departSpeed="0.00" departDelay="0.00" arrival="157.00" arrivalLane="1o_0" arrivalPos="492.80" arrivalSpeed="10.34" duration="79.00" routeLength="995.90" waitingTime="0.00" waitingCount="0" stopTime="0.00" timeLoss="7.47" rerouteNo="0" devices="tripinfo_NS_78" vType="car" speedFactor="0.99" vaporized=""/>
    <tripinfo id="NS_96" depart="96.00" departLane="2i_0" departPos="4.10" departSpeed="0.00" departDelay="0.00" arrival="177.00" arrivalLane="4o_0" arrivalPos="492.80" arrivalSpeed="9.78" duration="81.00" routeLength="990.53" waitingTime="0.00" waitingCount="0" stopTime="0.00" timeLoss="8.70" rerouteNo="0" devices="tripinfo_NS_96" vType="car" speedFactor="0.97" vaporized=""/>
    <tripinfo id="NS_104" depart="104.00" departLane="2i_0" departPos="10.10" departSpeed="0.00" departDelay="0.00" arrival="185.00" arrivalLane="1o_0" arrivalPos="492.80" arrivalSpeed="11.18" duration="81.00" routeLength="989.90" waitingTime="0.00" waitingCount="0" stopTime="0.00" timeLoss="12.58" rerouteNo="0" devices="tripinfo_NS_104" vType="truck" speedFactor="1.05" vaporized=""/>
    <tripinfo id="WE_122" depart="122.00" departLane="1i_0" departPos="4.10" departSpeed="0.00" departDelay="0.00" arrival="199.00" arrivalLane="3o_0" arrivalPos="492.80" arrivalSpeed="11.37" duration="77.00" routeLength="990.53" waitingTime="0.00" waitingCount="0" stopTime="0.00" timeLoss="7.72" rerouteNo="0" devices="tripinfo_WE_122" vType="car" speedFactor="1.03" vaporized=""/>
    <tripinfo id="NS_127" depart="127.00" departLane="2i_0" departPos="4.10" departSpeed="0.00" departDelay="0.00" arrival="203.00" arrivalLane="1o_0" arrivalPos="492.80" arrivalSpeed="11.29" duration="76.00" routeLength="995.90" waitingTime="0.00" waitingCount="0" stopTime="0.00" timeLoss="7.51" rerouteNo="0" devices="tripinfo_NS_127" vType="car" speedFactor="1.04" vaporized=""/>
    <tripinfo id="NS_117" depart="117.00" departLane="2i_0" departPos="4.10" departSpeed="0.00" departDelay="0.00" arrival="209.00" arrivalLane="3o_0" arrivalPos="492.80" arrivalSpeed="9.11" duration="92.00" routeLength="995.70" waitingTime="0.00" waitingCount="0" stopTime="0.00" timeLoss="13.02" rerouteNo="0" devices="tripinfo_NS_117" vType="car" speedFactor="0.90" vaporized=""/>
    <tripinfo id="WE_123" depart="127.00" departLane="1i_0" departPos="4.10" departSpeed="0.00" departDelay="4.00" arrival="209.00" arrivalLane="2o_0" arrivalPos="492.80" arrivalSpeed="10.23" duration="82.00" routeLength="995.90" waitingTime="0.00" waitingCount="0" stopTime="0.00" timeLoss="8.12" rerouteNo="0" devices="tripinfo_WE_123" vType="car" speedFactor="0.96" vaporized=""/>
    <tripinfo id="NS_133" depart="133.00" departLane="2i_0" departPos="4.10" departSpeed="0.00" departDelay="0.00" arrival="212.00" arrivalLane="1o_0" arrivalPos="492.80" arrivalSpeed="10.83" duration="79.00" routeLength="995.90" waitingTime="0.00" waitingCount="0" stopTime="0.00" timeLoss="7.86" rerouteNo="0" devices="tripinfo_NS_133" vType="car" speedFactor="1.00" vaporized=""/>
    <tripinfo id="NS_143" depart="143.00" departLane="2i_0" departPos="4.10" departSpeed="0.00" departDelay="0.00" arrival="215.00" arrivalLane="3o_0" arrivalPos="492.80" arrivalSpeed="11.76" duration="72.00" routeLength="995.70" waitingTime="0.00" waitingCount="0" stopTime="0.00" timeLoss="10.79" rerouteNo="0" devices="tripinfo_NS_143" vType="car" speedFactor="1.17" vaporized=""/>
    <tripinfo id="WE_148" depart="148.00" departLane="1i_0" departPos="4.10" departSpeed="0.00" departDelay="0.00" arrival="223.00" arrivalLane="4o_0" arrivalPos="492.80" arrivalSpeed="11.14" duration="75.00" routeLength="995.70" waitingTime="0.00" waitingCount="0" stopTime="0.00" timeLoss="10.23" rerouteNo="0" devices="tripinfo_WE_148" vType="car" speedFactor="1.10" vaporized=""/>
    <tripinfo id="NS_155" depart="155.00" departLane="2i_0" departPos="4.10" departSpeed="0.00" departDelay="0.00" arrival="225.00" arrivalLane="4o_0" arrivalPos="492.80" arrivalSpeed="11.85" duration="70.00" routeLength="990.53" waitingTime="0.00" waitingCount="0" stopTime="0.00" timeLoss="8.35" rerouteNo="0" devices="tripinfo_NS_155" vType="car" speedFactor="1.14" vaporized=""/>
    <tripinfo id="WE_152" depart="152.00" departLane="1i_0" departPos="4.10" departSpeed="0.00" departDelay="0.00" arrival="233.00" arrivalLane="4o_0" arrivalPos="492.80" arrivalSpeed="10.59" duration="81.00" routeLength="995.70" waitingTime="0.00" waitingCount="0" stopTime="0.00" timeLoss="10.67" rerouteNo="0" devices="tripinfo_WE_152" vType="car" speedFactor="1.00" vaporized=""/>
    <tripinfo id="NS_157" depart="158.00" departLane="2i_0" departPos="4.10" departSpeed="0.00" departDelay="1.00" arrival="236.00" arrivalLane="4o_0" arrivalPos="492.80" arrivalSpeed="10.73" duration="78.00" routeLength="990.53" waitingTime="0.00" waitingCount="0" stopTime="0.00" timeLoss="8.85" rerouteNo="0" devices="tripinfo_NS_157" vType="car" speedFactor="1.02" vaporized=""/>
    <tripinfo id="WE_158" depart="158.00" departLane="1i_0" departPos="4.10" departSpeed="0.00" departDelay="0.00" arrival="239.00" arrivalLane="2o_0" arrivalPos="492.80" arrivalSpeed="10.74" duration="81.00" routeLength="995.90" waitingTime="0.00" waitingCount="0" stopTime="0.00" timeLoss="7.70" rerouteNo="0" devices="tripinfo_WE_158" vType="car" speedFactor="0.97" vaporized=""/>
    <tripinfo id="NS_163" depart="163.00" departLane="2i_0" departPos="4.10" departSpeed="0.00" departDelay="0.00" arrival="241.00" arrivalLane="4o_0" arrivalPos="492.80" arrivalSpeed="10.70" duration="78.00" routeLength="990.53" waitingTime="0.00" waitingCount="0" stopTime="0.00" timeLoss="7.75" rerouteNo="0" devices="tripinfo_NS_163" vType="car" speedFactor="1.02" vaporized=""/>
    <tripinfo id="NS_166" depart="166.00" departLane="2i_0" departPos="4.10" departSpeed="0.00" departDelay="0.00" arrival="246.00" arrivalLane="4o_0" arrivalPos="492.80" arrivalSpeed="10.48" duration="80.00" routeLength="990.53" waitingTime="0.00" waitingCount="0" stopTime="0.00" timeLoss="8.27" rerouteNo="0" devices="tripinfo_NS_166" vType="car" speedFactor="0.99" vaporized=""/>
    <tripinfo id="NS_168" depart="169.00" departLane="2i_0" departPos="4.10" departSpeed="0.00" departDelay="1.00" arrival="253.00" arrivalLane="1o_0" arrivalPos="492.80" arrivalSpeed="10.18" duration="84.00" routeLength="995.90" waitingTime="0.00" waitingCount="0" stopTime="0.00" timeLoss="7.79" rerouteNo="0" devices="tripinfo_NS_168" vType="car" speedFactor="0.94" vaporized=""/>
    <tripinfo id="WE_175" depart="175.00" departLane="1i_0" departPos="4.10" departSpeed="0.00" departDelay="0.00" arrival="263.00" arrivalLane="4o_0" arrivalPos="492.80" arrivalSpeed="9.92" duration="88.00" routeLength="995.70" waitingTime="0.00" waitingCount="0" stopTime="0.00" timeLoss="10.01" rerouteNo="0" devices="tripinfo_WE_175" vType="car" speedFactor="0.91" vaporized=""/>
    <tripinfo id="NS_182" depart="182.00" departLane="2i_0" departPos="4.10" departSpeed="0.00" departDelay="0.00" arrival="265.00" arrivalLane="4o_0" arrivalPos="492.80" arrivalSpeed="11.05" duration="83.00" routeLength="990.53" waitingTime="0.00" waitingCount="0" stopTime="0.00" timeLoss="13.81" rerouteNo="0" devices="tripinfo_NS_182" vType="car" speedFactor="1.02" vaporized=""/>
    <tripinfo id="WE_180" depart="180.00" departLane="1i_0" departPos="4.10" departSpeed="0.00" departDelay="0.00" arrival="267.00" arrivalLane="4o_0" arrivalPos="492.80" arrivalSpeed="10.62" duration="87.00" routeLength="995.70" waitingTime="0.00" waitingCount="0" stopTime="0.00" timeLoss="17.56" rerouteNo="0" devices="tripinfo_WE_180" vType="car" speedFactor="1.02" vaporized=""/>
    <tripinfo id="WE_184" depart="185.00" departLane="1i_0" departPos="4.10" departSpeed="0.00" departDelay="1.00" arrival="269.00" arrivalLane="4o_0" arrivalPos="492.80" arrivalSpeed="10.74" duration="84.00" routeLength="995.70" waitingTime="0.00" waitingCount="0" stopTime="0.00" timeLoss="10.88" rerouteNo="0" devices="tripinfo_WE_184" vType="car" speedFactor="0.97" vaporized=""/>
    <tripinfo id="WE_187" depart="188.00" departLane="1i_0" departPos="4.10" departSpeed="0.00" departDelay="1.00" arrival="275.00" arrivalLane="4o_0" arrivalPos="492.80" arrivalSpeed="9.48" duration="87.00" routeLength="995.70" waitingTime="0.00" waitingCount="0" stopTime="0.00" timeLoss="11.61" rerouteNo="0" devices="tripinfo_WE_187" vType="car" speedFactor="0.94" vaporized=""/>
    <tripinfo id="NS_196" depart="196.00" departLane="2i_0" departPos="10.10" departSpeed="0.00" departDelay="0.00" arrival="280.00" arrivalLane="4o_0" arrivalPos="492.80" arrivalSpeed="10.64" duration="84.00" routeLength="984.53" waitingTime="0.00" waitingCount="0" stopTime="0.00" timeLoss="12.91" rerouteNo="0" devices="tripinfo_NS_196" vType="truck" speedFactor="0.99" vaporized=""/>
    <tripinfo id="NS_201" depart="201.00" departLane="2i_0" departPos="4.10" departSpeed="0.00" departDelay="0.00" arrival="282.00" arrivalLane="4o_0" arrivalPos="492.80" arrivalSpeed="10.50" duration="81.00" routeLength="990.53" waitingTime="0.00" waitingCount="0" stopTime="0.00" timeLoss="12.73" rerouteNo="0" devices="tripinfo_NS_201" vType="car" speedFactor="1.03" vaporized=""/>
    <tripinfo id="NS_204" depart="204.00" departLane="2i_0" departPos="4.10" departSpeed="0.00" departDelay="0.00" arrival="287.00" arrivalLane="4o_0" arrivalPos="492.80" arrivalSpeed="9.70" duration="83.00" routeLength="990.53" waitingTime="0.00" waitingCount="0" stopTime="0.00" timeLoss="9.55" rerouteNo="0" devices="tripinfo_NS_204" vType="car" speedFactor="0.97" vaporized=""/>
    <tripinfo id="NS_210" depart="211.00" departLane="2i_0" departPos="4.10" departSpeed="0.00" departDelay="1.00" arrival="289.00" arrivalLane="1o_0" arrivalPos="492.80" arrivalSpeed="10.95" duration="78.00" routeLength="995.90" waitingTime="0.00" waitingCount="0" stopTime="0.00" timeLoss="10.27" rerouteNo="0" devices="tripinfo_NS_210" vType="car" speedFactor="1.04" vaporized=""/>
    <tripinfo id="NS_209" depart="209.00" departLane="2i_0" departPos="4.10" departSpeed="0.00" departDelay="0.00" arrival="291.00" arrivalLane="3o_0" arrivalPos="492.80" arrivalSpeed="10.06" duration="82.00" routeLength="995.70" waitingTime="0.00" waitingCount="0" stopTime="0.00" timeLoss="9.28" rerouteNo="0" devices="tripinfo_NS_209" vType="car" speedFactor="0.98" vaporized=""/>
    <tripinfo id="NS_217" depart="217.00" departLane="2i_0" departPos="4.10" departSpeed="0.00" departDelay="0.00" arrival="295.00" arrivalLane="1o_0" arrivalPos="492.80" arrivalSpeed="10.27" duration="78.00" routeLength="995.90" waitingTime="0.00" waitingCount="0" stopTime="0.00" timeLoss="8.11" rerouteNo="0" devices="tripinfo_NS_217" vType="car" speedFactor="1.02" vaporized=""/>
    <tripinfo id="NS_224" depart="224.00" departLane="2i_0" departPos="4.10" departSpeed="0.00" departDelay="0.00" arrival="301.00" arrivalLane="3o_0" arrivalPos="492.80" arrivalSpeed="11.26" duration="77.00" routeLength="995.70" waitingTime="0.00" waitingCount="0" stopTime="0.00" timeLoss="10.05" rerouteNo="0" devices="tripinfo_NS_224" vType="car" speedFactor="1.06" vaporized=""/>
    <tripinfo id="WE_191" depart="192.00" departLane="1i_0" departPos="10.10" departSpeed="0.00" departDelay="1.00" arrival="307.00" arrivalLane="4o_0" arrivalPos="492.80" arrivalSpeed="11.27" duration="115.00" routeLength="989.70" waitingTime="24.00" waitingCount="1" stopTime="0.00" timeLoss="46.32" rerouteNo="0" devices="tripinfo_WE_191" vType="truck" speedFactor="1.03" vaporized=""/>
    <tripinfo id="SN_9" depart="9.00" departLane="3i_0" departPos="4.10" departSpeed="0.00" departDelay="0.00" arrival="308.00" arrivalLane="1o_0" arrivalPos="492.80" arrivalSpeed="11.04" duration="299.00" routeLength="995.70" waitingTime="216.00" waitingCount="2" stopTime="0.00" timeLoss="233.65" rerouteNo="0" devices="tripinfo_SN_9" vType="car" speedFactor="1.08" vaporized=""/>
    <tripinfo id="WE_198" depart="198.00" departLane="1i_0" departPos="4.10" departSpeed="0.00" departDelay="0.00" arrival="312.00" arrivalLane="3o_0" arrivalPos="492.80" arrivalSpeed="10.04" duration="114.00" routeLength="990.53" waitingTime="24.00" waitingCount="1" stopTime="0.00" timeLoss="41.68" rerouteNo="0" devices="tripinfo_WE_198" vType="car" speedFactor="0.98" vaporized=""/>
    <tripinfo id="NS_229" depart="229.00" departLane="2i_0" departPos="4.10" departSpeed="0.00" departDelay="0.00" arrival="313.00" arrivalLane="3o_0" arrivalPos="492.80" arrivalSpeed="11.37" duration="84.00" routeLength="995.70" waitingTime="3.00" waitingCount="2" stopTime="0.00" timeLoss="19.55" rerouteNo="0" devices="tripinfo_NS_229" vType="car" speedFactor="1.10" vaporized=""/>
    <tripinfo id="EW_1" depart="1.00" departLane="4i_0" departPos="4.10" departSpeed="0.00" departDelay="0.00" arrival="316.00" arrivalLane="2o_0" arrivalPos="492.80" arrivalSpeed="9.98" duration="315.00" routeLength="995.70" waitingTime="225.00" waitingCount="2" stopTime="0.00" timeLoss="239.01" rerouteNo="0" devices="tripinfo_EW_1" vType="car" speedFactor="0.94" vaporized=""/>
    <tripinfo id="WE_199" depart="203.00" departLane="1i_0" departPos="10.10" departSpeed="0.00" departDelay="4.00" arrival="316.00" arrivalLane="4o_0" arrivalPos="492.80" arrivalSpeed="11.25" duration="113.00" routeLength="989.70" waitingTime="15.00" waitingCount="1" stopTime="0.00" timeLoss="44.83" rerouteNo="0" devices="tripinfo_WE_199" vType="truck" speedFactor="1.04" vaporized=""/>
    <tripinfo id="SN_31" depart="31.00" departLane="3i_0" departPos="4.10" departSpeed="0.00" departDelay="0.00" arrival="317.00" arrivalLane="2o_0" arrivalPos="492.80" arrivalSpeed="12.12" duration="286.00" routeLength="990.53" waitingTime="199.00" waitingCount="4" stopTime="0.00" timeLoss="223.42" rerouteNo="0" devices="tripinfo_SN_31" vType="car" speedFactor="1.12" vaporized=""/>
    <tripinfo id="EW_6" depart="6.00" departLane="4i_0" departPos="4.10" departSpeed="0.00" departDelay="0.00" arrival="321.00" arrivalLane="3o_0" arrivalPos="492.80" arrivalSpeed="10.62" duration="315.00" routeLength="995.90" waitingTime="222.00" waitingCount="4" stopTime="0.00" timeLoss="244.44" rerouteNo="0" devices="tripinfo_EW_6" vType="car" speedFactor="1.01" vaporized=""/>
    <tripinfo id="SN_32" depart="33.00" departLane="3i_0" departPos="4.10" departSpeed="0.00" departDelay="1.00" arrival="329.00" arrivalLane="2o_0" arrivalPos="492.80" arrivalSpeed="9.92" duration="296.00" routeLength="990.53" waitingTime="191.00" waitingCount="2" stopTime="0.00" timeLoss="219.62" rerouteNo="0" devices="tripinfo_SN_32" vType="car" speedFactor="0.93" vaporized=""/>
    <tripinfo id="EW_10" depart="10.00" departLane="4i_0" departPos="4.10" departSpeed="0.00" departDelay="0.00" arrival="330.00" arrivalLane="2o_0" arrivalPos="492.80" arrivalSpeed="10.95" duration="320.00" routeLength="995.70" waitingTime="220.00" waitingCount="5" stopTime="0.00" timeLoss="251.51" rerouteNo="0" devices="tripinfo_EW_10" vType="car" speedFactor="1.03" vaporized=""/>
    <tripinfo id="SN_12" depart="12.00" departLane="3i_0" departPos="4.10" departSpeed="0.00" departDelay="0.00" arrival="331.00" arrivalLane="4o_0" arrivalPos="492.80" arrivalSpeed="8.61" duration="319.00" routeLength="995.90" waitingTime="214.00" waitingCount="4" stopTime="0.00" timeLoss="234.17" rerouteNo="0" devices="tripinfo_SN_12" vType="car" speedFactor="0.83" vaporized=""/>
    <tripinfo id="WE_202" depart="207.00" departLane="1i_0" departPos="4.10" departSpeed="0.00" departDelay="5.00" arrival="332.00" arrivalLane="3o_0" arrivalPos="492.80" arrivalSpeed="10.69" duration="125.00" routeLength="990.53" waitingTime="25.00" waitingCount="2" stopTime="0.00" timeLoss="54.68" rerouteNo="0" devices="tripinfo_WE_202" vType="car" speedFactor="1.00" vaporized=""/>
    <tripinfo id="EW_17" depart="17.00" departLane="4i_0" departPos="4.10" departSpeed="0.00" departDelay="0.00" arrival="333.00" arrivalLane="2o_0" arrivalPos="492.80" arrivalSpeed="10.40" duration="316.00" routeLength="995.70" waitingTime="212.00" waitingCount="3" stopTime="0.00" timeLoss="240.45" rerouteNo="0" devices="tripinfo_EW_17" vType="car" speedFactor="0.94" vaporized=""/>
    <tripinfo id="WE_214" depart="214.00" departLane="1i_0" departPos="4.10" departSpeed="0.00" departDelay="0.00" arrival="335.00" arrivalLane="3o_0" arrivalPos="492.80" arrivalSpeed="10.30" duration="121.00" routeLength="990.53" waitingTime="23.00" waitingCount="2" stopTime="0.00" timeLoss="50.91" rerouteNo="0" devices="tripinfo_WE_214" vType="car" speedFactor="1.01" vaporized=""/>
    <tripinfo id="SN_33" depart="36.00" departLane="3i_0" departPos="4.10" departSpeed="0.00" departDelay="3.00" arrival="339.00" arrivalLane="1o_0" arrivalPos="492.80" arrivalSpeed="9.42" duration="303.00" routeLength="995.70" waitingTime="190.00" waitingCount="3" stopTime="0.00" timeLoss="222.65" rerouteNo="0" devices="tripinfo_SN_33" vType="car" speedFactor="0.88" vaporized=""/>
    <tripinfo id="SN_41" depart="41.00" departLane="3i_0" departPos="4.10" departSpeed="0.00" departDelay="0.00" arrival="341.00" arrivalLane="1o_0" arrivalPos="492.80" arrivalSpeed="11.07" duration="300.00" routeLength="995.70" waitingTime="188.00" waitingCount="2" stopTime="0.00" timeLoss="229.74" rerouteNo="0" devices="tripinfo_SN_41" vType="car" speedFactor="1.01" vaporized=""/>
    <tripinfo id="WE_222" depart="222.00" departLane="1i_0" departPos="4.10" departSpeed="0.00" departDelay="0.00" arrival="342.00" arrivalLane="2o_0" arrivalPos="492.80" arrivalSpeed="9.44" duration="120.00" routeLength="995.90" waitingTime="15.00" waitingCount="2" stopTime="0.00" timeLoss="42.69" rerouteNo="0" devices="tripinfo_WE_222" vType="car" speedFactor="0.92" vaporized=""/>
    <tripinfo id="NS_254" depart="254.00" departLane="2i_0" departPos="4.10" departSpeed="0.00" departDelay="0.00" arrival="343.00" arrivalLane="1o_0" arrivalPos="492.80" arrivalSpeed="11.37" duration="89.00" routeLength="995.90" waitingTime="0.00" waitingCount="0" stopTime="0.00" timeLoss="20.16" rerouteNo="0" devices="tripinfo_NS_254" vType="car" speedFactor="1.03" vaporized=""/>
    <tripinfo id="NS_257" depart="257.00" departLane="2i_0" departPos="4.10" departSpeed="0.00" departDelay="0.00" arrival="345.00" arrivalLane="1o_0" arrivalPos="492.80" arrivalSpeed="9.78" duration="88.00" routeLength="995.90" waitingTime="0.00" waitingCount="0" stopTime="0.00" timeLoss="13.81" rerouteNo="0" devices="tripinfo_NS_257" vType="car" speedFactor="0.96" vaporized=""/>
    <tripinfo id="WE_233" depart="233.00" departLane="1i_0" departPos="4.10" departSpeed="0.00" departDelay="0.00" arrival="346.00" arrivalLane="2o_0" arrivalPos="492.80" arrivalSpeed="10.31" duration="113.00" routeLength="995.90" waitingTime="7.00" waitingCount="1" stopTime="0.00" timeLoss="39.87" rerouteNo="0" devices="tripinfo_WE_233" vType="car" speedFactor="0.97" vaporized=""/>
    <tripinfo id="WE_228" depart="228.00" departLane="1i_0" departPos="4.10" departSpeed="0.00" departDelay="0.00" arrival="347.00" arrivalLane="4o_0" arrivalPos="492.80" arrivalSpeed="9.98" duration="119.00" routeLength="995.70" waitingTime="9.00" waitingCount="2" stopTime="0.00" timeLoss="41.13" rerouteNo="0" devices="tripinfo_WE_228" vType="car" speedFactor="0.91" vaporized=""/>
    <tripinfo id="NS_280" depart="280.00" departLane="2i_0" departPos="4.10" departSpeed="0.00" departDelay="0.00" arrival="348.00" arrivalLane="1o_0" arrivalPos="492.80" arrivalSpeed="13.02" duration="68.00" routeLength="995.90" waitingTime="0.00" waitingCount="0" stopTime="0.00" timeLoss="8.05" rerouteNo="0" devices="tripinfo_NS_280" vType="car" speedFactor="1.18" vaporized=""/>
    <tripinfo id="NS_271" depart="271.00" departLane="2i_0" departPos="4.10" departSpeed="0.00" departDelay="0.00" arrival="349.00" arrivalLane="4o_0" arrivalPos="492.80" arrivalSpeed="11.18" duration="78.00" routeLength="990.53" waitingTime="0.00" waitingCount="0" stopTime="0.00" timeLoss="13.75" rerouteNo="0" devices="tripinfo_NS_271" vType="car" speedFactor="1.10" vaporized=""/>
    <tripinfo id="WE_246" depart="246.00" departLane="1i_0" departPos="10.10" departSpeed="0.00" departDelay="0.00" arrival="363.00" arrivalLane="4o_0" arrivalPos="492.80" arrivalSpeed="10.46" duration="117.00" routeLength="989.70" waitingTime="10.00" waitingCount="2" stopTime="0.00" timeLoss="42.45" rerouteNo="0" devices="tripinfo_WE_246" vType="truck" speedFactor="0.95" vaporized=""/>
    <tripinfo id="WE_250" depart="250.00" departLane="1i_0" departPos="4.10" departSpeed="0.00" departDelay="0.00" arrival="365.00" arrivalLane="4o_0" arrivalPos="492.80" arrivalSpeed="11.44" duration="115.00" routeLength="995.70" waitingTime="9.00" waitingCount="2" stopTime="0.00" timeLoss="49.11" rerouteNo="0" devices="tripinfo_WE_250" vType="car" speedFactor="1.07" vaporized=""/>
    <tripinfo id="WE_257" depart="257.00" departLane="1i_0" departPos="10.10" departSpeed="0.00" departDelay="0.00" arrival="365.00" arrivalLane="2o_0" arrivalPos="492.80" arrivalSpeed="10.94" duration="108.00" routeLength="989.90" waitingTime="5.00" waitingCount="1" stopTime="0.00" timeLoss="39.73" rerouteNo="0" devices="tripinfo_WE_257" vType="truck" speedFactor="1.03" vaporized=""/>
    <tripinfo id="WE_269" depart="269.00" departLane="1i_0" departPos="4.10" departSpeed="0.00" departDelay="0.00" arrival="374.00" arrivalLane="2o_0" arrivalPos="492.80" arrivalSpeed="9.22" duration="105.00" routeLength="995.90" waitingTime="5.00" waitingCount="1" stopTime="0.00" timeLoss="28.67" rerouteNo="0" devices="tripinfo_WE_269" vType="car" speedFactor="0.93" vaporized=""/>
    <tripinfo id="WE_280" depart="280.00" departLane="1i_0" departPos="4.10" departSpeed="0.00" departDelay="0.00" arrival="376.00" arrivalLane="2o_0" arrivalPos="492.80" arrivalSpeed="11.47" duration="96.00" routeLength="995.90" waitingTime="3.00" waitingCount="1" stopTime="0.00" timeLoss="31.03" rerouteNo="0" devices="tripinfo_WE_280" vType="car" speedFactor="1.10" vaporized=""/>
    <tripinfo id="WE_271" depart="272.00" departLane="1i_0" departPos="4.10" departSpeed="0.00" departDelay="1.00" arrival="378.00" arrivalLane="3o_0" arrivalPos="492.80" arrivalSpeed="9.26" duration="106.00" routeLength="990.53" waitingTime="4.00" waitingCount="1" stopTime="0.00" timeLoss="24.69" rerouteNo="0" devices="tripinfo_WE_271" vType="car" speedFactor="0.87" vaporized=""/>
    <tripinfo id="WE_300" depart="300.00" departLane="1i_0" departPos="4.10" departSpeed="0.00" departDelay="0.00" arrival="378.00" arrivalLane="2o_0" arrivalPos="492.80" arrivalSpeed="11.01" duration="78.00" routeLength="995.90" waitingTime="0.00" waitingCount="0" stopTime="0.00" timeLoss="8.72" rerouteNo="0" devices="tripinfo_WE_300" vType="car" speedFactor="1.03" vaporized=""/>
    <tripinfo id="WE_305" depart="305.00" departLane="1i_0" departPos="4.10" departSpeed="0.00" departDelay="0.00" arrival="380.00" arrivalLane="2o_0" arrivalPos="492.80" arrivalSpeed="11.53" duration="75.00" routeLength="995.90" waitingTime="0.00" waitingCount="0" stopTime="0.00" timeLoss="7.72" rerouteNo="0" devices="tripinfo_WE_305" vType="car" speedFactor="1.06" vaporized=""/>
    <tripinfo id="NS_299" depart="299.00" departLane="2i_0" departPos="4.10" departSpeed="0.00" departDelay="0.00" arrival="398.00" arrivalLane="1o_0" arrivalPos="492.80" arrivalSpeed="11.66" duration="99.00" routeLength="995.90" waitingTime="22.00" waitingCount="1" stopTime="0.00" timeLoss="34.73" rerouteNo="0" devices="tripinfo_NS_299" vType="car" speedFactor="1.10" vaporized=""/>