<?xml version="1.0" encoding="UTF-8"?>

<!-- generated on 2024-05-05 22:52:35 by Eclipse SUMO sumo Version 1.19.0
<configuration xmlns:xsi="http://www.w3.org/2001/XMLSchema-instance" xsi:noNamespaceSchemaLocation="http://sumo.dlr.de/xsd/sumoConfiguration.xsd">

    <input>
        <net-file value="twoone.net.xml"/>
        <route-files value="route_gen.rou.xml"/>
    </input>

    <output>
        <tripinfo-output value="tripinfo_epi400.xml"/>
    </output>

    <report>
        <no-warnings value="true"/>
    </report>

    <traci_server>
        <remote-port value="40101"/>
    </traci_server>

</configuration>
-->

<tripinfos xmlns:xsi="http://www.w3.org/2001/XMLSchema-instance" xsi:noNamespaceSchemaLocation="http://sumo.dlr.de/xsd/tripinfo_file.xsd">
    <tripinfo id="EW_0" depart="0.00" departLane="4i_0" departPos="4.10" departSpeed="0.00" departDelay="0.00" arrival="80.00" arrivalLane="1o_0" arrivalPos="492.80" arrivalSpeed="10.71" duration="80.00" routeLength="990.53" waitingTime="0.00" waitingCount="0" stopTime="0.00" timeLoss="13.49" rerouteNo="0" devices="tripinfo_EW_0" vType="car" speedFactor="1.06" vaporized=""/>
    <tripinfo id="WE_7" depart="7.00" departLane="1i_0" departPos="4.10" departSpeed="0.00" departDelay="0.00" arrival="83.00" arrivalLane="3o_0" arrivalPos="492.80" arrivalSpeed="10.81" duration="76.00" routeLength="990.53" waitingTime="0.00" waitingCount="0" stopTime="0.00" timeLoss="7.20" rerouteNo="0" devices="tripinfo_WE_7" vType="car" speedFactor="1.03" vaporized=""/>
    <tripinfo id="WE_11" depart="11.00" departLane="1i_0" departPos="4.10" departSpeed="0.00" departDelay="0.00" arrival="86.00" arrivalLane="2o_0" arrivalPos="492.80" arrivalSpeed="11.44" duration="75.00" routeLength="995.90" waitingTime="0.00" waitingCount="0" stopTime="0.00" timeLoss="7.41" rerouteNo="0" devices="tripinfo_WE_11" vType="car" speedFactor="1.05" vaporized=""/>
    <tripinfo id="NS_5" depart="5.00" departLane="2i_0" departPos="4.10" departSpeed="0.00" departDelay="0.00" arrival="89.00" arrivalLane="1o_0" arrivalPos="492.80" arrivalSpeed="10.19" duration="84.00" routeLength="995.90" waitingTime="0.00" waitingCount="0" stopTime="0.00" timeLoss="8.23" rerouteNo="0" devices="tripinfo_NS_5" vType="car" speedFactor="0.94" vaporized=""/>
    <tripinfo id="NS_19" depart="19.00" departLane="2i_0" departPos="4.10" departSpeed="0.00" departDelay="0.00" arrival="97.00" arrivalLane="3o_0" arrivalPos="492.80" arrivalSpeed="11.13" duration="78.00" routeLength="995.70" waitingTime="0.00" waitingCount="0" stopTime="0.00" timeLoss="13.17" rerouteNo="0" devices="tripinfo_NS_19" vType="car" speedFactor="1.09" vaporized=""/>
    <tripinfo id="EW_6" depart="6.00" departLane="4i_0" departPos="4.10" departSpeed="0.00" departDelay="0.00" arrival="100.00" arrivalLane="3o_0" arrivalPos="492.80" arrivalSpeed="11.51" duration="94.00" routeLength="995.90" waitingTime="14.00" waitingCount="1" stopTime="0.00" timeLoss="28.35" rerouteNo="0" devices="tripinfo_EW_6" vType="car" speedFactor="1.08" vaporized=""/>
    <tripinfo id="NS_22" depart="22.00" departLane="2i_0" departPos="4.10" departSpeed="0.00" departDelay="0.00" arrival="100.00" arrivalLane="4o_0" arrivalPos="492.80" arrivalSpeed="11.49" duration="78.00" routeLength="990.53" waitingTime="0.00" waitingCount="0" stopTime="0.00" timeLoss="10.29" rerouteNo="0" devices="tripinfo_NS_22" vType="car" speedFactor="1.05" vaporized=""/>
    <tripinfo id="SN_5" depart="5.00" departLane="3i_0" departPos="4.10" departSpeed="0.00" departDelay="0.00" arrival="107.00" arrivalLane="1o_0" arrivalPos="492.80" arrivalSpeed="11.19" duration="102.00" routeLength="995.70" waitingTime="15.00" waitingCount="2" stopTime="0.00" timeLoss="31.38" rerouteNo="0" devices="tripinfo_SN_5" vType="car" speedFactor="1.01" vaporized=""/>
    <tripinfo id="NS_28" depart="28.00" departLane="2i_0" departPos="4.10" departSpeed="0.00" departDelay="0.00" arrival="113.00" arrivalLane="1o_0" arrivalPos="492.80" arrivalSpeed="9.78" duration="85.00" routeLength="995.90" waitingTime="0.00" waitingCount="0" stopTime="0.00" timeLoss="8.54" rerouteNo="0" devices="tripinfo_NS_28" vType="car" speedFactor="0.93" vaporized=""/>
    <tripinfo id="WE_12" depart="15.00" departLane="1i_0" departPos="10.10" departSpeed="0.00" departDelay="3.00" arrival="114.00" arrivalLane="2o_0" arrivalPos="492.80" arrivalSpeed="10.44" duration="99.00" routeLength="989.90" waitingTime="4.00" waitingCount="2" stopTime="0.00" timeLoss="24.40" rerouteNo="0" devices="tripinfo_WE_12" vType="truck" speedFactor="0.94" vaporized=""/>
    <tripinfo id="SN_13" depart="13.00" departLane="3i_0" departPos="4.10" departSpeed="0.00" departDelay="0.00" arrival="120.00" arrivalLane="1o_0" arrivalPos="492.80" arrivalSpeed="9.94" duration="107.00" routeLength="995.70" waitingTime="10.00" waitingCount="3" stopTime="0.00" timeLoss="31.77" rerouteNo="0" devices="tripinfo_SN_13" vType="car" speedFactor="0.94" vaporized=""/>
    <tripinfo id="EW_39" depart="39.00" departLane="4i_0" departPos="4.10" departSpeed="0.00" departDelay="0.00" arrival="122.00" arrivalLane="1o_0" arrivalPos="492.80" arrivalSpeed="11.96" duration="83.00" routeLength="990.53" waitingTime="3.00" waitingCount="1" stopTime="0.00" timeLoss="21.82" rerouteNo="0" devices="tripinfo_EW_39" vType="car" speedFactor="1.16" vaporized=""/>
    <tripinfo id="WE_17" depart="19.00" departLane="1i_0" departPos="4.10" departSpeed="0.00" departDelay="2.00" arrival="123.00" arrivalLane="4o_0" arrivalPos="492.80" arrivalSpeed="9.04" duration="104.00" routeLength="995.70" waitingTime="1.00" waitingCount="1" stopTime="0.00" timeLoss="21.32" rerouteNo="0" devices="tripinfo_WE_17" vType="car" speedFactor="0.86" vaporized=""/>
    <tripinfo id="NS_38" depart="38.00" departLane="2i_0" departPos="4.10" departSpeed="0.00" departDelay="0.00" arrival="123.00" arrivalLane="3o_0" arrivalPos="492.80" arrivalSpeed="9.74" duration="85.00" routeLength="995.70" waitingTime="0.00" waitingCount="0" stopTime="0.00" timeLoss="9.63" rerouteNo="0" devices="tripinfo_NS_38" vType="car" speedFactor="0.94" vaporized=""/>
    <tripinfo id="NS_40" depart="41.00" departLane="2i_0" departPos="4.10" departSpeed="0.00" departDelay="1.00" arrival="125.00" arrivalLane="4o_0" arrivalPos="492.80" arrivalSpeed="10.54" duration="84.00" routeLength="990.53" waitingTime="0.00" waitingCount="0" stopTime="0.00" timeLoss="14.22" rerouteNo="0" devices="tripinfo_NS_40" vType="car" speedFactor="1.02" vaporized=""/>
    <tripinfo id="EW_9" depart="9.00" departLane="4i_0" departPos="4.10" departSpeed="0.00" departDelay="0.00" arrival="126.00" arrivalLane="2o_0" arrivalPos="492.80" arrivalSpeed="9.11" duration="117.00" routeLength="995.70" waitingTime="12.00" waitingCount="2" stopTime="0.00" timeLoss="31.36" rerouteNo="0" devices="tripinfo_EW_9" vType="car" speedFactor="0.83" vaporized=""/>
    <tripinfo id="SN_20" depart="20.00" departLane="3i_0" departPos="4.10" departSpeed="0.00" departDelay="0.00" arrival="127.00" arrivalLane="1o_0" arrivalPos="492.80" arrivalSpeed="11.17" duration="107.00" routeLength="995.70" waitingTime="10.00" waitingCount="5" stopTime="0.00" timeLoss="37.49" rerouteNo="0" devices="tripinfo_SN_20" vType="car" speedFactor="1.03" vaporized=""/>
    <tripinfo id="WE_26" depart="26.00" departLane="1i_0" departPos="4.10" departSpeed="0.00" departDelay="0.00" arrival="127.00" arrivalLane="4o_0" arrivalPos="492.80" arrivalSpeed="10.64" duration="101.00" routeLength="995.70" waitingTime="4.00" waitingCount="1" stopTime="0.00" timeLoss="28.96" rerouteNo="0" devices="tripinfo_WE_26" vType="car" speedFactor="0.99" vaporized=""/>
    <tripinfo id="SN_23" depart="23.00" departLane="3i_0" departPos="4.10" departSpeed="0.00" departDelay="0.00" arrival="128.00" arrivalLane="1o_0" arrivalPos="492.80" arrivalSpeed="12.11" duration="105.00" routeLength="995.70" waitingTime="6.00" waitingCount="4" stopTime="0.00" timeLoss="42.07" rerouteNo="0" devices="tripinfo_SN_23" vType="car" speedFactor="1.12" vaporized=""/>
    <tripinfo id="WE_51" depart="51.00" departLane="1i_0" departPos="4.10" departSpeed="0.00" departDelay="0.00" arrival="134.00" arrivalLane="2o_0" arrivalPos="492.80" arrivalSpeed="9.96" duration="83.00" routeLength="995.90" waitingTime="2.00" waitingCount="2" stopTime="0.00" timeLoss="12.74" rerouteNo="0" devices="tripinfo_WE_51" vType="car" speedFactor="1.01" vaporized=""/>
    <tripinfo id="SN_32" depart="32.00" departLane="3i_0" departPos="4.10" departSpeed="0.00" departDelay="0.00" arrival="145.00" arrivalLane="2o_0" arrivalPos="492.80" arrivalSpeed="8.46" duration="113.00" routeLength="990.53" waitingTime="3.00" waitingCount="2" stopTime="0.00" timeLoss="32.86" rerouteNo="0" devices="tripinfo_SN_32" vType="car" speedFactor="0.88" vaporized=""/>
    <tripinfo id="WE_61" depart="61.00" departLane="1i_0" departPos="4.10" departSpeed="0.00" departDelay="0.00" arrival="147.00" arrivalLane="2o_0" arrivalPos="492.80" arrivalSpeed="10.00" duration="86.00" routeLength="995.90" waitingTime="0.00" waitingCount="0" stopTime="0.00" timeLoss="12.95" rerouteNo="0" devices="tripinfo_WE_61" vType="car" speedFactor="0.97" vaporized=""/>
    <tripinfo id="SN_38" depart="38.00" departLane="3i_0" departPos="4.10" departSpeed="0.00" departDelay="0.00" arrival="149.00" arrivalLane="2o_0" arrivalPos="492.80" arrivalSpeed="10.19" duration="111.00" routeLength="990.53" waitingTime="4.00" waitingCount="3" stopTime="0.00" timeLoss="35.34" rerouteNo="0" devices="tripinfo_SN_38" vType="car" speedFactor="0.94" vaporized=""/>
    <tripinfo id="WE_64" depart="64.00" departLane="1i_0" departPos="4.10" departSpeed="0.00" departDelay="0.00" arrival="154.00" arrivalLane="2o_0" arrivalPos="492.80" arrivalSpeed="9.47" duration="90.00" routeLength="995.90" waitingTime="0.00" waitingCount="0" stopTime="0.00" timeLoss="9.90" rerouteNo="0" devices="tripinfo_WE_64" vType="car" speedFactor="0.89" vaporized=""/>
    <tripinfo id="WE_66" depart="67.00" departLane="1i_0" departPos="4.10" departSpeed="0.00" departDelay="1.00" arrival="161.00" arrivalLane="3o_0" arrivalPos="492.80" arrivalSpeed="8.54" duration="94.00" routeLength="990.53" waitingTime="0.00" waitingCount="0" stopTime="0.00" timeLoss="8.12" rerouteNo="0" devices="tripinfo_WE_66" vType="car" speedFactor="0.83" vaporized=""/>
    <tripinfo id="WE_100" depart="100.00" departLane="1i_0" departPos="4.10" departSpeed="0.00" departDelay="0.00" arrival="168.00" arrivalLane="3o_0" arrivalPos="492.80" arrivalSpeed="12.24" duration="68.00" routeLength="990.53" waitingTime="0.00" waitingCount="0" stopTime="0.00" timeLoss="7.48" rerouteNo="0" devices="tripinfo_WE_100" vType="car" speedFactor="1.17" vaporized=""/>
    <tripinfo id="WE_86" depart="86.00" departLane="1i_0" departPos="4.10" departSpeed="0.00" departDelay="0.00" arrival="169.00" arrivalLane="2o_0" arrivalPos="492.80" arrivalSpeed="10.08" duration="83.00" routeLength="995.90" waitingTime="0.00" waitingCount="0" stopTime="0.00" timeLoss="7.83" rerouteNo="0" devices="tripinfo_WE_86" vType="car" speedFactor="0.95" vaporized=""/>
    <tripinfo id="NS_87" depart="87.00" departLane="2i_0" departPos="4.10" departSpeed="0.00" departDelay="0.00" arrival="173.00" arrivalLane="3o_0" arrivalPos="492.80" arrivalSpeed="12.39" duration="86.00" routeLength="995.70" waitingTime="11.00" waitingCount="1" stopTime="0.00" timeLoss="22.87" rerouteNo="0" devices="tripinfo_NS_87" vType="car" speedFactor="1.13" vaporized=""/>
    <tripinfo id="NS_97" depart="97.00" departLane="2i_0" departPos="4.10" departSpeed="0.00" departDelay="0.00" arrival="175.00" arrivalLane="4o_0" arrivalPos="492.80" arrivalSpeed="12.64" duration="78.00" routeLength="990.53" waitingTime="2.00" waitingCount="1" stopTime="0.00" timeLoss="17.10" rerouteNo="0" devices="tripinfo_NS_97" vType="car" speedFactor="1.15" vaporized=""/>
    <tripinfo id="NS_90" depart="90.00" departLane="2i_0" departPos="4.10" departSpeed="0.00" departDelay="0.00" arrival="185.00" arrivalLane="3o_0" arrivalPos="492.80" arrivalSpeed="9.58" duration="95.00" routeLength="995.70" waitingTime="6.00" waitingCount="1" stopTime="0.00" timeLoss="18.44" rerouteNo="0" devices="tripinfo_NS_90" vType="car" speedFactor="0.93" vaporized=""/>
    <tripinfo id="NS_99" depart="100.00" departLane="2i_0" departPos="4.10" departSpeed="0.00" departDelay="1.00" arrival="186.00" arrivalLane="3o_0" arrivalPos="492.80" arrivalSpeed="10.65" duration="86.00" routeLength="995.70" waitingTime="0.00" waitingCount="0" stopTime="0.00" timeLoss="15.80" rerouteNo="0" devices="tripinfo_NS_99" vType="car" speedFactor="1.01" vaporized=""/>
    <tripinfo id="WE_101" depart="103.00" departLane="1i_0" departPos="10.10" departSpeed="0.00" departDelay="2.00" arrival="189.00" arrivalLane="4o_0" arrivalPos="492.80" arrivalSpeed="10.71" duration="86.00" routeLength="989.70" waitingTime="0.00" waitingCount="0" stopTime="0.00" timeLoss="15.57" rerouteNo="0" devices="tripinfo_WE_101" vType="truck" speedFactor="1.00" vaporized=""/>
    <tripinfo id="WE_106" depart="107.00" departLane="1i_0" departPos="4.10" departSpeed="0.00" departDelay="1.00" arrival="194.00" arrivalLane="4o_0" arrivalPos="492.80" arrivalSpeed="10.36" duration="87.00" routeLength="995.70" waitingTime="0.00" waitingCount="0" stopTime="0.00" timeLoss="14.50" rerouteNo="0" devices="tripinfo_WE_106" vType="car" speedFactor="0.97" vaporized=""/>
    <tripinfo id="WE_109" depart="110.00" departLane="1i_0" departPos="4.10" departSpeed="0.00" departDelay="1.00" arrival="196.00" arrivalLane="4o_0" arrivalPos="492.80" arrivalSpeed="10.98" duration="86.00" routeLength="995.70" waitingTime="0.00" waitingCount="0" stopTime="0.00" timeLoss="21.56" rerouteNo="0" devices="tripinfo_WE_109" vType="car" speedFactor="1.10" vaporized=""/>
    <tripinfo id="WE_119" depart="120.00" departLane="1i_0" departPos="10.10" departSpeed="0.00" departDelay="1.00" arrival="205.00" arrivalLane="2o_0" arrivalPos="492.80" arrivalSpeed="10.58" duration="85.00" routeLength="989.90" waitingTime="0.00" waitingCount="0" stopTime="0.00" timeLoss="12.34" rerouteNo="0" devices="tripinfo_WE_119" vType="truck" speedFactor="0.98" vaporized=""/>
    <tripinfo id="WE_123" depart="124.00" departLane="1i_0" departPos="4.10" departSpeed="0.00" departDelay="1.00" arrival="205.00" arrivalLane="4o_0" arrivalPos="492.80" arrivalSpeed="11.23" duration="81.00" routeLength="995.70" waitingTime="0.00" waitingCount="0" stopTime="0.00" timeLoss="16.29" rerouteNo="0" devices="tripinfo_WE_123" vType="car" speedFactor="1.09" vaporized=""/>
    <tripinfo id="WE_125" depart="128.00" departLane="1i_0" departPos="4.10" departSpeed="0.00" departDelay="3.00" arrival="210.00" arrivalLane="2o_0" arrivalPos="492.80" arrivalSpeed="10.91" duration="82.00" routeLength="995.90" waitingTime="0.00" waitingCount="0" stopTime="0.00" timeLoss="13.08" rerouteNo="0" devices="tripinfo_WE_125" vType="car" speedFactor="1.04" vaporized=""/>
    <tripinfo id="WE_130" depart="130.00" departLane="1i_0" departPos="4.10" departSpeed="0.00" departDelay="0.00" arrival="219.00" arrivalLane="3o_0" arrivalPos="492.80" arrivalSpeed="9.82" duration="89.00" routeLength="990.53" waitingTime="0.00" waitingCount="0" stopTime="0.00" timeLoss="10.40" rerouteNo="0" devices="tripinfo_WE_130" vType="car" speedFactor="0.90" vaporized=""/>
    <tripinfo id="NS_131" depart="131.00" departLane="2i_0" departPos="4.10" departSpeed="0.00" departDelay="0.00" arrival="222.00" arrivalLane="3o_0" arrivalPos="492.80" arrivalSpeed="9.43" duration="91.00" routeLength="995.70" waitingTime="0.00" waitingCount="0" stopTime="0.00" timeLoss="10.24" rerouteNo="0" devices="tripinfo_NS_131" vType="car" speedFactor="0.88" vaporized=""/>
    <tripinfo id="WE_146" depart="146.00" departLane="1i_0" departPos="4.10" departSpeed="0.00" departDelay="0.00" arrival="224.00" arrivalLane="2o_0" arrivalPos="492.80" arrivalSpeed="10.00" duration="78.00" routeLength="995.90" waitingTime="0.00" waitingCount="0" stopTime="0.00" timeLoss="7.88" rerouteNo="0" devices="tripinfo_WE_146" vType="car" speedFactor="1.02" vaporized=""/>
    <tripinfo id="NS_132" depart="134.00" departLane="2i_0" departPos="4.10" departSpeed="0.00" departDelay="2.00" arrival="225.00" arrivalLane="4o_0" arrivalPos="492.80" arrivalSpeed="9.17" duration="91.00" routeLength="990.53" waitingTime="0.00" waitingCount="0" stopTime="0.00" timeLoss="8.11" rerouteNo="0" devices="tripinfo_NS_132" vType="car" speedFactor="0.85" vaporized=""/>
    <tripinfo id="NS_148" depart="149.00" departLane="2i_0" departPos="4.10" departSpeed="0.00" departDelay="1.00" arrival="227.00" arrivalLane="4o_0" arrivalPos="492.80" arrivalSpeed="11.76" duration="78.00" routeLength="990.53" waitingTime="0.00" waitingCount="0" stopTime="0.00" timeLoss="13.13" rerouteNo="0" devices="tripinfo_NS_148" vType="car" speedFactor="1.10" vaporized=""/>
    <tripinfo id="NS_158" depart="158.00" departLane="2i_0" departPos="4.10" departSpeed="0.00" departDelay="0.00" arrival="229.00" arrivalLane="4o_0" arrivalPos="492.80" arrivalSpeed="12.38" duration="71.00" routeLength="990.53" waitingTime="0.00" waitingCount="0" stopTime="0.00" timeLoss="8.69" rerouteNo="0" devices="tripinfo_NS_158" vType="car" speedFactor="1.14" vaporized=""/>
    <tripinfo id="NS_162" depart="162.00" departLane="2i_0" departPos="4.10" departSpeed="0.00" departDelay="0.00" arrival="236.00" arrivalLane="3o_0" arrivalPos="492.80" arrivalSpeed="12.00" duration="74.00" routeLength="995.70" waitingTime="0.00" waitingCount="0" stopTime="0.00" timeLoss="10.29" rerouteNo="0" devices="tripinfo_NS_162" vType="car" speedFactor="1.12" vaporized=""/>
    <tripinfo id="WE_168" depart="168.00" departLane="1i_0" departPos="4.10" departSpeed="0.00" departDelay="0.00" arrival="247.00" arrivalLane="4o_0" arrivalPos="492.80" arrivalSpeed="11.14" duration="79.00" routeLength="995.70" waitingTime="0.00" waitingCount="0" stopTime="0.00" timeLoss="9.26" rerouteNo="0" devices="tripinfo_WE_168" vType="car" speedFactor="1.02" vaporized=""/>
    <tripinfo id="NS_182" depart="182.00" departLane="2i_0" departPos="4.10" departSpeed="0.00" departDelay="0.00" arrival="261.00" arrivalLane="3o_0" arrivalPos="492.80" arrivalSpeed="10.35" duration="79.00" routeLength="995.70" waitingTime="0.00" waitingCount="0" stopTime="0.00" timeLoss="9.37" rerouteNo="0" devices="tripinfo_NS_182" vType="car" speedFactor="1.02" vaporized=""/>
    <tripinfo id="NS_177" depart="177.00" departLane="2i_0" departPos="4.10" departSpeed="0.00" departDelay="0.00" arrival="264.00" arrivalLane="4o_0" arrivalPos="492.80" arrivalSpeed="8.82" duration="87.00" routeLength="990.53" waitingTime="0.00" waitingCount="0" stopTime="0.00" timeLoss="9.00" rerouteNo="0" devices="tripinfo_NS_177" vType="car" speedFactor="0.91" vaporized=""/>
    <tripinfo id="WE_182" depart="182.00" departLane="1i_0" departPos="4.10" departSpeed="0.00" departDelay="0.00" arrival="264.00" arrivalLane="3o_0" arrivalPos="492.80" arrivalSpeed="11.18" duration="82.00" routeLength="990.53" waitingTime="0.00" waitingCount="0" stopTime="0.00" timeLoss="14.44" rerouteNo="0" devices="tripinfo_WE_182" vType="car" speedFactor="1.04" vaporized=""/>
    <tripinfo id="WE_183" depart="185.00" departLane="1i_0" departPos="4.10" departSpeed="0.00" departDelay="2.00" arrival="267.00" arrivalLane="2o_0" arrivalPos="492.80" arrivalSpeed="10.52" duration="82.00" routeLength="995.90" waitingTime="0.00" waitingCount="0" stopTime="0.00" timeLoss="12.92" rerouteNo="0" devices="tripinfo_WE_183" vType="car" speedFactor="1.02" vaporized=""/>
    <tripinfo id="NS_190" depart="191.00" departLane="2i_0" departPos="4.10" departSpeed="0.00" departDelay="1.00" arrival="269.00" arrivalLane="3o_0" arrivalPos="492.80" arrivalSpeed="10.46" duration="78.00" routeLength="995.70" waitingTime="0.00" waitingCount="0" stopTime="0.00" timeLoss="10.97" rerouteNo="0" devices="tripinfo_NS_190" vType="car" speedFactor="1.06" vaporized=""/>
    <tripinfo id="WE_176" depart="176.00" departLane="1i_0" departPos="4.10" departSpeed="0.00" departDelay="0.00" arrival="272.00" arrivalLane="4o_0" arrivalPos="492.80" arrivalSpeed="8.83" duration="96.00" routeLength="995.70" waitingTime="2.00" waitingCount="1" stopTime="0.00" timeLoss="15.27" rerouteNo="0" devices="tripinfo_WE_176" vType="car" speedFactor="0.88" vaporized=""/>
    <tripinfo id="NS_189" depart="189.00" departLane="2i_0" departPos="4.10" departSpeed="0.00" departDelay="0.00" arrival="273.00" arrivalLane="1o_0" arrivalPos="492.80" arrivalSpeed="10.19" duration="84.00" routeLength="995.90" waitingTime="0.00" waitingCount="0" stopTime="0.00" timeLoss="7.88" rerouteNo="0" devices="tripinfo_NS_189" vType="car" speedFactor="0.94" vaporized=""/>
    <tripinfo id="NS_192" depart="195.00" departLane="2i_0" departPos="4.10" departSpeed="0.00" departDelay="3.00" arrival="277.00" arrivalLane="1o_0" arrivalPos="492.80" arrivalSpeed="9.44" duration="82.00" routeLength="995.90" waitingTime="0.00" waitingCount="0" stopTime="0.00" timeLoss="7.98" rerouteNo="0" devices="tripinfo_NS_192" vType="car" speedFactor="0.96" vaporized=""/>
    <tripinfo id="NS_197" depart="198.00" departLane="2i_0" departPos="4.10" departSpeed="0.00" departDelay="1.00" arrival="280.00" arrivalLane="3o_0" arrivalPos="492.80" arrivalSpeed="10.44" duration="82.00" routeLength="995.70" waitingTime="0.00" waitingCount="0" stopTime="0.00" timeLoss="9.50" rerouteNo="0" devices="tripinfo_NS_197" vType="car" speedFactor="0.98" vaporized=""/>
    <tripinfo id="WE_208" depart="208.00" departLane="1i_0" departPos="4.10" departSpeed="0.00" departDelay="0.00" arrival="282.00" arrivalLane="2o_0" arrivalPos="492.80" arrivalSpeed="11.30" duration="74.00" routeLength="995.90" waitingTime="0.00" waitingCount="0" stopTime="0.00" timeLoss="8.79" rerouteNo="0" devices="tripinfo_WE_208" vType="car" speedFactor="1.09" vaporized=""/>
    <tripinfo id="NS_202" depart="205.00" departLane="2i_0" departPos="4.10" departSpeed="0.00" departDelay="3.00" arrival="286.00" arrivalLane="1o_0" arrivalPos="492.80" arrivalSpeed="9.83" duration="81.00" routeLength="995.90" waitingTime="0.00" waitingCount="0" stopTime="0.00" timeLoss="8.26" rerouteNo="0" devices="tripinfo_NS_202" vType="car" speedFactor="0.98" vaporized=""/>
    <tripinfo id="WE_216" depart="216.00" departLane="1i_0" departPos="10.10" departSpeed="0.00" departDelay="0.00" arrival="298.00" arrivalLane="3o_0" arrivalPos="492.80" arrivalSpeed="10.53" duration="82.00" routeLength="984.53" waitingTime="0.00" waitingCount="0" stopTime="0.00" timeLoss="11.83" rerouteNo="0" devices="tripinfo_WE_216" vType="truck" speedFactor="1.00" vaporized=""/>
    <tripinfo id="NS_219" depart="219.00" departLane="2i_0" departPos="10.10" departSpeed="0.00" departDelay="0.00" arrival="302.00" arrivalLane="1o_0" arrivalPos="492.80" arrivalSpeed="10.69" duration="83.00" routeLength="989.90" waitingTime="0.00" waitingCount="0" stopTime="0.00" timeLoss="12.74" rerouteNo="0" devices="tripinfo_NS_219" vType="truck" speedFactor="1.01" vaporized=""/>
    <tripinfo id="WE_220" depart="220.00" departLane="1i_0" departPos="4.10" departSpeed="0.00" departDelay="0.00" arrival="305.00" arrivalLane="2o_0" arrivalPos="492.80" arrivalSpeed="9.80" duration="85.00" routeLength="995.90" waitingTime="0.00" waitingCount="0" stopTime="0.00" timeLoss="11.46" rerouteNo="0" devices="tripinfo_WE_220" vType="car" speedFactor="0.97" vaporized=""/>
    <tripinfo id="WE_228" depart="228.00" departLane="1i_0" departPos="4.10" departSpeed="0.00" departDelay="0.00" arrival="309.00" arrivalLane="3o_0" arrivalPos="492.80" arrivalSpeed="10.39" duration="81.00" routeLength="990.53" waitingTime="0.00" waitingCount="0" stopTime="0.00" timeLoss="8.38" rerouteNo="0" devices="tripinfo_WE_228" vType="car" speedFactor="0.98" vaporized=""/>
    <tripinfo id="NS_237" depart="237.00" departLane="2i_0" departPos="4.10" departSpeed="0.00" departDelay="0.00" arrival="314.00" arrivalLane="1o_0" arrivalPos="492.80" arrivalSpeed="10.37" duration="77.00" routeLength="995.90" waitingTime="0.00" waitingCount="0" stopTime="0.00" timeLoss="7.47" rerouteNo="0" devices="tripinfo_NS_237" vType="car" speedFactor="1.02" vaporized=""/>
    <tripinfo id="WE_245" depart="245.00" departLane="1i_0" departPos="4.10" departSpeed="0.00" departDelay="0.00" arrival="322.00" arrivalLane="4o_0" arrivalPos="492.80" arrivalSpeed="11.26" duration="77.00" routeLength="995.70" waitingTime="0.00" waitingCount="0" stopTime="0.00" timeLoss="10.07" rerouteNo="0" devices="tripinfo_WE_245" vType="car" speedFactor="1.06" vaporized=""/>
    <tripinfo id="NS_249" depart="250.00" departLane="2i_0" departPos="4.10" departSpeed="0.00" departDelay="1.00" arrival="326.00" arrivalLane="4o_0" arrivalPos="492.80" arrivalSpeed="11.93" duration="76.00" routeLength="990.53" waitingTime="0.00" waitingCount="0" stopTime="0.00" timeLoss="13.07" rerouteNo="0" devices="tripinfo_NS_249" vType="car" speedFactor="1.12" vaporized=""/>
    <tripinfo id="NS_247" depart="247.00" departLane="2i_0" departPos="4.10" departSpeed="0.00" departDelay="0.00" arrival="335.00" arrivalLane="3o_0" arrivalPos="492.80" arrivalSpeed="9.51" duration="88.00" routeLength="995.70" waitingTime="0.00" waitingCount="0" stopTime="0.00" timeLoss="9.90" rerouteNo="0" devices="tripinfo_NS_247" vType="car" speedFactor="0.91" vaporized=""/>
    <tripinfo id="NS_252" depart="252.00" departLane="2i_0" departPos="4.10" departSpeed="0.00" departDelay="0.00" arrival="337.00" arrivalLane="3o_0" arrivalPos="492.80" arrivalSpeed="10.98" duration="85.00" routeLength="995.70" waitingTime="1.00" waitingCount="1" stopTime="0.00" timeLoss="18.09" rerouteNo="0" devices="tripinfo_NS_252" vType="car" speedFactor="1.06" vaporized=""/>
    <tripinfo id="NS_259" depart="259.00" departLane="2i_0" departPos="4.10" departSpeed="0.00" departDelay="0.00" arrival="340.00" arrivalLane="1o_0" arrivalPos="492.80" arrivalSpeed="9.64" duration="81.00" routeLength="995.90" waitingTime="0.00" waitingCount="0" stopTime="0.00" timeLoss="8.08" rerouteNo="0" devices="tripinfo_NS_259" vType="car" speedFactor="0.97" vaporized=""/>
    <tripinfo id="WE_263" depart="263.00" departLane="1i_0" departPos="10.10" departSpeed="0.00" departDelay="0.00" arrival="350.00" arrivalLane="3o_0" arrivalPos="492.80" arrivalSpeed="10.29" duration="87.00" routeLength="984.53" waitingTime="0.00" waitingCount="0" stopTime="0.00" timeLoss="12.58" rerouteNo="0" devices="tripinfo_WE_263" vType="truck" speedFactor="0.95" vaporized=""/>
    <tripinfo id="WE_272" depart="273.00" departLane="1i_0" departPos="4.10" departSpeed="0.00" departDelay="1.00" arrival="351.00" arrivalLane="2o_0" arrivalPos="492.80" arrivalSpeed="11.24" duration="78.00" routeLength="995.90" waitingTime="0.00" waitingCount="0" stopTime="0.00" timeLoss="8.02" rerouteNo="0" devices="tripinfo_WE_272" vType="car" speedFactor="1.01" vaporized=""/>
    <tripinfo id="WE_276" depart="277.00" departLane="1i_0" departPos="4.10" departSpeed="0.00" departDelay="1.00" arrival="353.00" arrivalLane="2o_0" arrivalPos="492.80" arrivalSpeed="10.59" duration="76.00" routeLength="995.90" waitingTime="0.00" waitingCount="0" stopTime="0.00" timeLoss="9.06" rerouteNo="0" devices="tripinfo_WE_276" vType="car" speedFactor="1.06" vaporized=""/>
    <tripinfo id="WE_285" depart="286.00" departLane="1i_0" departPos="4.10" departSpeed="0.00" departDelay="1.00" arrival="359.00" arrivalLane="2o_0" arrivalPos="492.80" arrivalSpeed="11.20" duration="73.00" routeLength="995.90" waitingTime="0.00" waitingCount="0" stopTime="0.00" timeLoss="8.69" rerouteNo="0" devices="tripinfo_WE_285" vType="car" speedFactor="1.10" vaporized=""/>
    <tripinfo id="NS_277" depart="277.00" departLane="2i_0" departPos="4.10" departSpeed="0.00" departDelay="0.00" arrival="360.00" arrivalLane="1o_0" arrivalPos="492.80" arrivalSpeed="9.71" duration="83.00" routeLength="995.90" waitingTime="0.00" waitingCount="0" stopTime="0.00" timeLoss="9.38" rerouteNo="0" devices="tripinfo_NS_277" vType="car" speedFactor="0.96" vaporized=""/>
    <tripinfo id="NS_285" depart="285.00" departLane="2i_0" departPos="4.10" departSpeed="0.00" departDelay="0.00" arrival="368.00" arrivalLane="3o_0" arrivalPos="492.80" arrivalSpeed="10.93" duration="83.00" routeLength="995.70" waitingTime="0.00" waitingCount="0" stopTime="0.00" timeLoss="12.34" rerouteNo="0" devices="tripinfo_NS_285" vType="car" speedFactor="1.01" vaporized=""/>
    <tripinfo id="NS_296" depart="296.00" departLane="2i_0" departPos="4.10" departSpeed="0.00" departDelay="0.00" arrival="372.00" arrivalLane="4o_0" arrivalPos="492.80" arrivalSpeed="11.44" duration="76.00" routeLength="990.53" waitingTime="0.00" waitingCount="0" stopTime="0.00" timeLoss="7.50" rerouteNo="0" devices="tripinfo_NS_296" vType="car" speedFactor="1.03" vaporized=""/>
    <tripinfo id="NS_283" depart="283.00" departLane="2i_0" departPos="4.10" departSpeed="0.00" departDelay="0.00" arrival="374.00" arrivalLane="1o_0" arrivalPos="492.80" arrivalSpeed="8.57" duration="91.00" routeLength="995.90" waitingTime="0.00" waitingCount="0" stopTime="0.00" timeLoss="8.73" rerouteNo="0" devices="tripinfo_NS_283" vType="car" speedFactor="0.87" vaporized=""/>
    <tripinfo id="WE_289" depart="289.00" departLane="1i_0" departPos="4.10" departSpeed="0.00" departDelay="0.00" arrival="375.00" arrivalLane="3o_0" arrivalPos="492.80" arrivalSpeed="9.92" duration="86.00" routeLength="990.53" waitingTime="0.00" waitingCount="0" stopTime="0.00" timeLoss="9.75" rerouteNo="0" devices="tripinfo_WE_289" vType="car" speedFactor="0.92" vaporized=""/>
    <tripinfo id="WE_292" depart="292.00" departLane="1i_0" departPos="4.10" departSpeed="0.00" departDelay="0.00" arrival="377.00" arrivalLane="3o_0" arrivalPos="492.80" arrivalSpeed="10.61" duration="85.00" routeLength="990.53" waitingTime="0.00" waitingCount="0" stopTime="0.00" timeLoss="18.82" rerouteNo="0" devices="tripinfo_WE_292" vType="car" speedFactor="1.07" vaporized=""/>