<?xml version="1.0" encoding="UTF-8"?>

<!-- generated on 2024-05-05 22:03:20 by Eclipse SUMO sumo Version 1.19.0
<configuration xmlns:xsi="http://www.w3.org/2001/XMLSchema-instance" xsi:noNamespaceSchemaLocation="http://sumo.dlr.de/xsd/sumoConfiguration.xsd">

    <input>
        <net-file value="twoone.net.xml"/>
        <route-files value="route_gen.rou.xml"/>
    </input>

    <output>
        <tripinfo-output value="tripinfo_epi183.xml"/>
    </output>

    <report>
        <no-warnings value="true"/>
    </report>

    <traci_server>
        <remote-port value="60731"/>
    </traci_server>

</configuration>
-->

<tripinfos xmlns:xsi="http://www.w3.org/2001/XMLSchema-instance" xsi:noNamespaceSchemaLocation="http://sumo.dlr.de/xsd/tripinfo_file.xsd">
    <tripinfo id="NS_0" depart="0.00" departLane="2i_0" departPos="4.10" departSpeed="0.00" departDelay="0.00" arrival="75.00" arrivalLane="4o_0" arrivalPos="492.80" arrivalSpeed="10.62" duration="75.00" routeLength="990.53" waitingTime="0.00" waitingCount="0" stopTime="0.00" timeLoss="7.83" rerouteNo="0" devices="tripinfo_NS_0" vType="car" speedFactor="1.06" vaporized=""/>
    <tripinfo id="WE_5" depart="5.00" departLane="1i_0" departPos="4.10" departSpeed="0.00" departDelay="0.00" arrival="85.00" arrivalLane="4o_0" arrivalPos="492.80" arrivalSpeed="10.06" duration="80.00" routeLength="995.70" waitingTime="0.00" waitingCount="0" stopTime="0.00" timeLoss="9.64" rerouteNo="0" devices="tripinfo_WE_5" vType="car" speedFactor="1.01" vaporized=""/>
    <tripinfo id="WE_18" depart="18.00" departLane="1i_0" departPos="4.10" departSpeed="0.00" departDelay="0.00" arrival="93.00" arrivalLane="2o_0" arrivalPos="492.80" arrivalSpeed="11.44" duration="75.00" routeLength="995.90" waitingTime="0.00" waitingCount="0" stopTime="0.00" timeLoss="7.15" rerouteNo="0" devices="tripinfo_WE_18" vType="car" speedFactor="1.05" vaporized=""/>
    <tripinfo id="NS_15" depart="15.00" departLane="2i_0" departPos="10.10" departSpeed="0.00" departDelay="0.00" arrival="104.00" arrivalLane="1o_0" arrivalPos="492.80" arrivalSpeed="9.79" duration="89.00" routeLength="989.90" waitingTime="0.00" waitingCount="0" stopTime="0.00" timeLoss="11.45" rerouteNo="0" devices="tripinfo_NS_15" vType="truck" speedFactor="0.92" vaporized=""/>
    <tripinfo id="WE_21" depart="21.00" departLane="1i_0" departPos="4.10" departSpeed="0.00" departDelay="0.00" arrival="105.00" arrivalLane="2o_0" arrivalPos="492.80" arrivalSpeed="9.60" duration="84.00" routeLength="995.90" waitingTime="0.00" waitingCount="0" stopTime="0.00" timeLoss="8.45" rerouteNo="0" devices="tripinfo_WE_21" vType="car" speedFactor="0.94" vaporized=""/>
    <tripinfo id="NS_19" depart="19.00" departLane="2i_0" departPos="4.10" departSpeed="0.00" departDelay="0.00" arrival="111.00" arrivalLane="3o_0" arrivalPos="492.80" arrivalSpeed="8.97" duration="92.00" routeLength="995.70" waitingTime="0.00" waitingCount="0" stopTime="0.00" timeLoss="12.07" rerouteNo="0" devices="tripinfo_NS_19" vType="car" speedFactor="0.89" vaporized=""/>
    <tripinfo id="NS_23" depart="23.00" departLane="2i_0" departPos="4.10" departSpeed="0.00" departDelay="0.00" arrival="116.00" arrivalLane="1o_0" arrivalPos="492.80" arrivalSpeed="9.06" duration="93.00" routeLength="995.90" waitingTime="0.00" waitingCount="0" stopTime="0.00" timeLoss="9.87" rerouteNo="0" devices="tripinfo_NS_23" vType="car" speedFactor="0.86" vaporized=""/>
    <tripinfo id="WE_24" depart="25.00" departLane="1i_0" departPos="10.10" departSpeed="0.00" departDelay="1.00" arrival="118.00" arrivalLane="4o_0" arrivalPos="492.80" arrivalSpeed="11.61" duration="93.00" routeLength="989.70" waitingTime="0.00" waitingCount="0" stopTime="0.00" timeLoss="24.73" rerouteNo="0" devices="tripinfo_WE_24" vType="truck" speedFactor="1.05" vaporized=""/>
    <tripinfo id="NS_30" depart="30.00" departLane="2i_0" departPos="10.10" departSpeed="0.00" departDelay="0.00" arrival="118.00" arrivalLane="1o_0" arrivalPos="492.80" arrivalSpeed="10.45" duration="88.00" routeLength="989.90" waitingTime="0.00" waitingCount="0" stopTime="0.00" timeLoss="18.19" rerouteNo="0" devices="tripinfo_NS_30" vType="truck" speedFactor="1.01" vaporized=""/>
    <tripinfo id="WE_42" depart="42.00" departLane="1i_0" departPos="4.10" departSpeed="0.00" departDelay="0.00" arrival="120.00" arrivalLane="4o_0" arrivalPos="492.80" arrivalSpeed="11.57" duration="78.00" routeLength="995.70" waitingTime="0.00" waitingCount="0" stopTime="0.00" timeLoss="14.64" rerouteNo="0" devices="tripinfo_WE_42" vType="car" speedFactor="1.12" vaporized=""/>
    <tripinfo id="EW_1" depart="1.00" departLane="4i_0" departPos="4.10" departSpeed="0.00" departDelay="0.00" arrival="135.00" arrivalLane="1o_0" arrivalPos="492.80" arrivalSpeed="9.83" duration="134.00" routeLength="990.53" waitingTime="45.00" waitingCount="1" stopTime="0.00" timeLoss="58.28" rerouteNo="0" devices="tripinfo_EW_1" vType="car" speedFactor="0.94" vaporized=""/>
    <tripinfo id="SN_13" depart="13.00" departLane="3i_0" departPos="4.10" departSpeed="0.00" departDelay="0.00" arrival="136.00" arrivalLane="1o_0" arrivalPos="492.80" arrivalSpeed="11.27" duration="123.00" routeLength="995.70" waitingTime="37.00" waitingCount="2" stopTime="0.00" timeLoss="54.29" rerouteNo="0" devices="tripinfo_SN_13" vType="car" speedFactor="1.03" vaporized=""/>
    <tripinfo id="NS_52" depart="52.00" departLane="2i_0" departPos="4.10" departSpeed="0.00" departDelay="0.00" arrival="138.00" arrivalLane="1o_0" arrivalPos="492.80" arrivalSpeed="9.89" duration="86.00" routeLength="995.90" waitingTime="0.00" waitingCount="0" stopTime="0.00" timeLoss="14.56" rerouteNo="0" devices="tripinfo_NS_52" vType="car" speedFactor="0.99" vaporized=""/>
    <tripinfo id="NS_68" depart="68.00" departLane="2i_0" departPos="4.10" departSpeed="0.00" departDelay="0.00" arrival="139.00" arrivalLane="3o_0" arrivalPos="492.80" arrivalSpeed="12.06" duration="71.00" routeLength="995.70" waitingTime="0.00" waitingCount="0" stopTime="0.00" timeLoss="9.73" rerouteNo="0" devices="tripinfo_NS_68" vType="car" speedFactor="1.16" vaporized=""/>
    <tripinfo id="NS_53" depart="55.00" departLane="2i_0" departPos="4.10" departSpeed="0.00" departDelay="2.00" arrival="143.00" arrivalLane="1o_0" arrivalPos="492.80" arrivalSpeed="9.00" duration="88.00" routeLength="995.90" waitingTime="0.00" waitingCount="0" stopTime="0.00" timeLoss="11.48" rerouteNo="0" devices="tripinfo_NS_53" vType="car" speedFactor="0.93" vaporized=""/>
    <tripinfo id="NS_60" depart="60.00" departLane="2i_0" departPos="4.10" departSpeed="0.00" departDelay="0.00" arrival="143.00" arrivalLane="4o_0" arrivalPos="492.80" arrivalSpeed="9.19" duration="83.00" routeLength="990.53" waitingTime="0.00" waitingCount="0" stopTime="0.00" timeLoss="8.01" rerouteNo="0" devices="tripinfo_NS_60" vType="car" speedFactor="0.94" vaporized=""/>
    <tripinfo id="EW_5" depart="5.00" departLane="4i_0" departPos="4.10" departSpeed="0.00" departDelay="0.00" arrival="145.00" arrivalLane="1o_0" arrivalPos="492.80" arrivalSpeed="12.03" duration="140.00" routeLength="990.53" waitingTime="52.00" waitingCount="2" stopTime="0.00" timeLoss="74.26" rerouteNo="0" devices="tripinfo_EW_5" vType="car" speedFactor="1.08" vaporized=""/>
    <tripinfo id="SN_40" depart="40.00" departLane="3i_0" departPos="4.10" departSpeed="0.00" departDelay="0.00" arrival="147.00" arrivalLane="1o_0" arrivalPos="492.80" arrivalSpeed="10.60" duration="107.00" routeLength="995.70" waitingTime="18.00" waitingCount="3" stopTime="0.00" timeLoss="39.48" rerouteNo="0" devices="tripinfo_SN_40" vType="car" speedFactor="1.05" vaporized=""/>
    <tripinfo id="NS_76" depart="76.00" departLane="2i_0" departPos="4.10" departSpeed="0.00" departDelay="0.00" arrival="157.00" arrivalLane="3o_0" arrivalPos="492.80" arrivalSpeed="11.11" duration="81.00" routeLength="995.70" waitingTime="0.00" waitingCount="0" stopTime="0.00" timeLoss="10.31" rerouteNo="0" devices="tripinfo_NS_76" vType="car" speedFactor="1.01" vaporized=""/>
    <tripinfo id="NS_77" depart="79.00" departLane="2i_0" departPos="4.10" departSpeed="0.00" departDelay="2.00" arrival="160.00" arrivalLane="4o_0" arrivalPos="492.80" arrivalSpeed="10.37" duration="81.00" routeLength="990.53" waitingTime="0.00" waitingCount="0" stopTime="0.00" timeLoss="7.96" rerouteNo="0" devices="tripinfo_NS_77" vType="car" speedFactor="0.97" vaporized=""/>
    <tripinfo id="NS_79" depart="82.00" departLane="2i_0" departPos="10.10" departSpeed="0.00" departDelay="3.00" arrival="169.00" arrivalLane="4o_0" arrivalPos="492.80" arrivalSpeed="10.26" duration="87.00" routeLength="984.53" waitingTime="0.00" waitingCount="0" stopTime="0.00" timeLoss="12.41" rerouteNo="0" devices="tripinfo_NS_79" vType="truck" speedFactor="0.94" vaporized=""/>
    <tripinfo id="WE_96" depart="96.00" departLane="1i_0" departPos="4.10" departSpeed="0.00" departDelay="0.00" arrival="173.00" arrivalLane="4o_0" arrivalPos="492.80" arrivalSpeed="12.16" duration="77.00" routeLength="995.70" waitingTime="0.00" waitingCount="0" stopTime="0.00" timeLoss="13.93" rerouteNo="0" devices="tripinfo_WE_96" vType="car" speedFactor="1.13" vaporized=""/>
    <tripinfo id="WE_81" depart="81.00" departLane="1i_0" departPos="4.10" departSpeed="0.00" departDelay="0.00" arrival="175.00" arrivalLane="3o_0" arrivalPos="492.80" arrivalSpeed="7.91" duration="94.00" routeLength="990.53" waitingTime="0.00" waitingCount="0" stopTime="0.00" timeLoss="8.95" rerouteNo="0" devices="tripinfo_WE_81" vType="car" speedFactor="0.83" vaporized=""/>
    <tripinfo id="NS_93" depart="93.00" departLane="2i_0" departPos="4.10" departSpeed="0.00" departDelay="0.00" arrival="181.00" arrivalLane="3o_0" arrivalPos="492.80" arrivalSpeed="8.95" duration="88.00" routeLength="995.70" waitingTime="0.00" waitingCount="0" stopTime="0.00" timeLoss="10.50" rerouteNo="0" devices="tripinfo_NS_93" vType="car" speedFactor="0.92" vaporized=""/>
    <tripinfo id="NS_103" depart="103.00" departLane="2i_0" departPos="10.10" departSpeed="0.00" departDelay="0.00" arrival="185.00" arrivalLane="3o_0" arrivalPos="492.80" arrivalSpeed="11.64" duration="82.00" routeLength="989.70" waitingTime="0.00" waitingCount="0" stopTime="0.00" timeLoss="15.83" rerouteNo="0" devices="tripinfo_NS_103" vType="truck" speedFactor="1.09" vaporized=""/>
    <tripinfo id="NS_109" depart="109.00" departLane="2i_0" departPos="4.10" departSpeed="0.00" departDelay="0.00" arrival="186.00" arrivalLane="1o_0" arrivalPos="492.80" arrivalSpeed="12.75" duration="77.00" routeLength="995.90" waitingTime="0.00" waitingCount="0" stopTime="0.00" timeLoss="14.85" rerouteNo="0" devices="tripinfo_NS_109" vType="car" speedFactor="1.15" vaporized=""/>
    <tripinfo id="NS_117" depart="118.00" departLane="2i_0" departPos="4.10" departSpeed="0.00" departDelay="1.00" arrival="189.00" arrivalLane="1o_0" arrivalPos="492.80" arrivalSpeed="12.66" duration="71.00" routeLength="995.90" waitingTime="0.00" waitingCount="0" stopTime="0.00" timeLoss="10.08" rerouteNo="0" devices="tripinfo_NS_117" vType="car" speedFactor="1.17" vaporized=""/>
    <tripinfo id="NS_115" depart="115.00" departLane="2i_0" departPos="4.10" departSpeed="0.00" departDelay="0.00" arrival="194.00" arrivalLane="4o_0" arrivalPos="492.80" arrivalSpeed="10.61" duration="79.00" routeLength="990.53" waitingTime="0.00" waitingCount="0" stopTime="0.00" timeLoss="8.56" rerouteNo="0" devices="tripinfo_NS_115" vType="car" speedFactor="1.01" vaporized=""/>
    <tripinfo id="NS_125" depart="125.00" departLane="2i_0" departPos="4.10" departSpeed="0.00" departDelay="0.00" arrival="206.00" arrivalLane="1o_0" arrivalPos="492.80" arrivalSpeed="10.11" duration="81.00" routeLength="995.90" waitingTime="0.00" waitingCount="0" stopTime="0.00" timeLoss="7.49" rerouteNo="0" devices="tripinfo_NS_125" vType="car" speedFactor="0.97" vaporized=""/>
    <tripinfo id="WE_122" depart="122.00" departLane="1i_0" departPos="4.10" departSpeed="0.00" departDelay="0.00" arrival="212.00" arrivalLane="4o_0" arrivalPos="492.80" arrivalSpeed="10.33" duration="90.00" routeLength="995.70" waitingTime="6.00" waitingCount="1" stopTime="0.00" timeLoss="20.24" rerouteNo="0" devices="tripinfo_WE_122" vType="car" speedFactor="1.02" vaporized=""/>
    <tripinfo id="EW_60" depart="60.00" departLane="4i_0" departPos="4.10" departSpeed="0.00" departDelay="0.00" arrival="214.00" arrivalLane="3o_0" arrivalPos="492.80" arrivalSpeed="9.43" duration="154.00" routeLength="995.90" waitingTime="55.00" waitingCount="1" stopTime="0.00" timeLoss="72.82" rerouteNo="0" devices="tripinfo_EW_60" vType="car" speedFactor="0.88" vaporized=""/>
    <tripinfo id="EW_66" depart="66.00" departLane="4i_0" departPos="4.10" departSpeed="0.00" departDelay="0.00" arrival="216.00" arrivalLane="3o_0" arrivalPos="492.80" arrivalSpeed="10.23" duration="150.00" routeLength="995.90" waitingTime="55.00" waitingCount="1" stopTime="0.00" timeLoss="73.56" rerouteNo="0" devices="tripinfo_EW_66" vType="car" speedFactor="0.94" vaporized=""/>
    <tripinfo id="EW_74" depart="75.00" departLane="4i_0" departPos="4.10" departSpeed="0.00" departDelay="1.00" arrival="217.00" arrivalLane="2o_0" arrivalPos="492.80" arrivalSpeed="10.15" duration="142.00" routeLength="995.70" waitingTime="53.00" waitingCount="2" stopTime="0.00" timeLoss="72.50" rerouteNo="0" devices="tripinfo_EW_74" vType="car" speedFactor="1.02" vaporized=""/>
    <tripinfo id="WE_138" depart="138.00" departLane="1i_0" departPos="4.10" departSpeed="0.00" departDelay="0.00" arrival="217.00" arrivalLane="3o_0" arrivalPos="492.80" arrivalSpeed="11.25" duration="79.00" routeLength="990.53" waitingTime="0.00" waitingCount="0" stopTime="0.00" timeLoss="10.69" rerouteNo="0" devices="tripinfo_WE_138" vType="car" speedFactor="1.03" vaporized=""/>
    <tripinfo id="WE_139" depart="141.00" departLane="1i_0" departPos="4.10" departSpeed="0.00" departDelay="2.00" arrival="219.00" arrivalLane="2o_0" arrivalPos="492.80" arrivalSpeed="11.73" duration="78.00" routeLength="995.90" waitingTime="0.00" waitingCount="0" stopTime="0.00" timeLoss="12.78" rerouteNo="0" devices="tripinfo_WE_139" vType="car" speedFactor="1.09" vaporized=""/>
    <tripinfo id="SN_83" depart="83.00" departLane="3i_0" departPos="4.10" departSpeed="0.00" departDelay="0.00" arrival="222.00" arrivalLane="4o_0" arrivalPos="492.80" arrivalSpeed="9.36" duration="139.00" routeLength="995.90" waitingTime="43.00" waitingCount="3" stopTime="0.00" timeLoss="57.98" rerouteNo="0" devices="tripinfo_SN_83" vType="car" speedFactor="0.87" vaporized=""/>
    <tripinfo id="EW_96" depart="96.00" departLane="4i_0" departPos="4.10" departSpeed="0.00" departDelay="0.00" arrival="224.00" arrivalLane="1o_0" arrivalPos="492.80" arrivalSpeed="10.14" duration="128.00" routeLength="990.53" waitingTime="28.00" waitingCount="1" stopTime="0.00" timeLoss="51.71" rerouteNo="0" devices="tripinfo_EW_96" vType="car" speedFactor="0.93" vaporized=""/>
    <tripinfo id="NS_138" depart="138.00" departLane="2i_0" departPos="4.10" departSpeed="0.00" departDelay="0.00" arrival="225.00" arrivalLane="3o_0" arrivalPos="492.80" arrivalSpeed="9.59" duration="87.00" routeLength="995.70" waitingTime="0.00" waitingCount="0" stopTime="0.00" timeLoss="13.25" rerouteNo="0" devices="tripinfo_NS_138" vType="car" speedFactor="0.96" vaporized=""/>
    <tripinfo id="SN_95" depart="95.00" departLane="3i_0" departPos="10.10" departSpeed="0.00" departDelay="0.00" arrival="229.00" arrivalLane="4o_0" arrivalPos="492.80" arrivalSpeed="10.57" duration="134.00" routeLength="989.90" waitingTime="31.00" waitingCount="5" stopTime="0.00" timeLoss="61.08" rerouteNo="0" devices="tripinfo_SN_95" vType="truck" speedFactor="0.97" vaporized=""/>
    <tripinfo id="SN_125" depart="125.00" departLane="3i_0" departPos="4.10" departSpeed="0.00" departDelay="0.00" arrival="232.00" arrivalLane="1o_0" arrivalPos="492.80" arrivalSpeed="12.11" duration="107.00" routeLength="995.70" waitingTime="10.00" waitingCount="4" stopTime="0.00" timeLoss="46.94" rerouteNo="0" devices="tripinfo_SN_125" vType="car" speedFactor="1.18" vaporized=""/>
    <tripinfo id="EW_151" depart="151.00" departLane="4i_0" departPos="4.10" departSpeed="0.00" departDelay="0.00" arrival="232.00" arrivalLane="2o_0" arrivalPos="492.80" arrivalSpeed="11.97" duration="81.00" routeLength="995.70" waitingTime="0.00" waitingCount="0" stopTime="0.00" timeLoss="16.06" rerouteNo="0" devices="tripinfo_EW_151" vType="car" speedFactor="1.09" vaporized=""/>
    <tripinfo id="SN_120" depart="120.00" departLane="3i_0" departPos="4.10" departSpeed="0.00" departDelay="0.00" arrival="233.00" arrivalLane="4o_0" arrivalPos="492.80" arrivalSpeed="9.88" duration="113.00" routeLength="995.90" waitingTime="13.00" waitingCount="4" stopTime="0.00" timeLoss="41.68" rerouteNo="0" devices="tripinfo_SN_120" vType="car" speedFactor="0.99" vaporized=""/>
    <tripinfo id="WE_156" depart="156.00" departLane="1i_0" departPos="4.10" departSpeed="0.00" departDelay="0.00" arrival="235.00" arrivalLane="3o_0" arrivalPos="492.80" arrivalSpeed="10.32" duration="79.00" routeLength="990.53" waitingTime="0.00" waitingCount="0" stopTime="0.00" timeLoss="7.70" rerouteNo="0" devices="tripinfo_WE_156" vType="car" speedFactor="1.00" vaporized=""/>
    <tripinfo id="SN_129" depart="129.00" departLane="3i_0" departPos="10.10" departSpeed="0.00" departDelay="0.00" arrival="247.00" arrivalLane="2o_0" arrivalPos="492.80" arrivalSpeed="11.29" duration="118.00" routeLength="984.53" waitingTime="5.00" waitingCount="4" stopTime="0.00" timeLoss="50.94" rerouteNo="0" devices="tripinfo_SN_129" vType="truck" speedFactor="1.05" vaporized=""/>
    <tripinfo id="WE_161" depart="161.00" departLane="1i_0" departPos="4.10" departSpeed="0.00" departDelay="0.00" arrival="250.00" arrivalLane="3o_0" arrivalPos="492.80" arrivalSpeed="9.67" duration="89.00" routeLength="990.53" waitingTime="0.00" waitingCount="0" stopTime="0.00" timeLoss="8.48" rerouteNo="0" devices="tripinfo_WE_161" vType="car" speedFactor="0.88" vaporized=""/>
    <tripinfo id="WE_167" depart="169.00" departLane="1i_0" departPos="4.10" departSpeed="0.00" departDelay="2.00" arrival="252.00" arrivalLane="4o_0" arrivalPos="492.80" arrivalSpeed="12.65" duration="83.00" routeLength="995.70" waitingTime="4.00" waitingCount="1" stopTime="0.00" timeLoss="22.28" rerouteNo="0" devices="tripinfo_WE_167" vType="car" speedFactor="1.17" vaporized=""/>
    <tripinfo id="NS_168" depart="168.00" departLane="2i_0" departPos="4.10" departSpeed="0.00" departDelay="0.00" arrival="254.00" arrivalLane="1o_0" arrivalPos="492.80" arrivalSpeed="11.18" duration="86.00" routeLength="995.90" waitingTime="0.00" waitingCount="0" stopTime="0.00" timeLoss="15.71" rerouteNo="0" devices="tripinfo_NS_168" vType="car" speedFactor="1.02" vaporized=""/>
    <tripinfo id="WE_166" depart="166.00" departLane="1i_0" departPos="4.10" departSpeed="0.00" departDelay="0.00" arrival="258.00" arrivalLane="3o_0" arrivalPos="492.80" arrivalSpeed="9.47" duration="92.00" routeLength="990.53" waitingTime="0.00" waitingCount="0" stopTime="0.00" timeLoss="9.34" rerouteNo="0" devices="tripinfo_WE_166" vType="car" speedFactor="0.85" vaporized=""/>
    <tripinfo id="NS_165" depart="165.00" departLane="2i_0" departPos="4.10" departSpeed="0.00" departDelay="0.00" arrival="261.00" arrivalLane="3o_0" arrivalPos="492.80" arrivalSpeed="8.81" duration="96.00" routeLength="995.70" waitingTime="0.00" waitingCount="0" stopTime="0.00" timeLoss="12.35" rerouteNo="0" devices="tripinfo_NS_165" vType="car" speedFactor="0.85" vaporized=""/>
    <tripinfo id="NS_172" depart="172.00" departLane="2i_0" departPos="4.10" departSpeed="0.00" departDelay="0.00" arrival="263.00" arrivalLane="3o_0" arrivalPos="492.80" arrivalSpeed="9.08" duration="91.00" routeLength="995.70" waitingTime="0.00" waitingCount="0" stopTime="0.00" timeLoss="11.80" rerouteNo="0" devices="tripinfo_NS_172" vType="car" speedFactor="0.90" vaporized=""/>
    <tripinfo id="EW_169" depart="169.00" departLane="4i_0" departPos="4.10" departSpeed="0.00" departDelay="0.00" arrival="264.00" arrivalLane="3o_0" arrivalPos="492.80" arrivalSpeed="10.95" duration="95.00" routeLength="995.90" waitingTime="7.00" waitingCount="1" stopTime="0.00" timeLoss="24.52" rerouteNo="0" devices="tripinfo_EW_169" vType="car" speedFactor="1.00" vaporized=""/>
    <tripinfo id="EW_171" depart="173.00" departLane="4i_0" departPos="4.10" departSpeed="0.00" departDelay="2.00" arrival="264.00" arrivalLane="2o_0" arrivalPos="492.80" arrivalSpeed="10.44" duration="91.00" routeLength="995.70" waitingTime="4.00" waitingCount="1" stopTime="0.00" timeLoss="19.57" rerouteNo="0" devices="tripinfo_EW_171" vType="car" speedFactor="1.00" vaporized=""/>
    <tripinfo id="SN_140" depart="140.00" departLane="3i_0" departPos="4.10" departSpeed="0.00" departDelay="0.00" arrival="269.00" arrivalLane="2o_0" arrivalPos="492.80" arrivalSpeed="11.13" duration="129.00" routeLength="990.53" waitingTime="10.00" waitingCount="3" stopTime="0.00" timeLoss="60.44" rerouteNo="0" devices="tripinfo_SN_140" vType="car" speedFactor="1.04" vaporized=""/>
    <tripinfo id="SN_131" depart="133.00" departLane="3i_0" departPos="4.10" departSpeed="0.00" departDelay="2.00" arrival="271.00" arrivalLane="1o_0" arrivalPos="492.80" arrivalSpeed="9.42" duration="138.00" routeLength="995.70" waitingTime="10.00" waitingCount="3" stopTime="0.00" timeLoss="59.35" rerouteNo="0" devices="tripinfo_SN_131" vType="car" speedFactor="0.90" vaporized=""/>
    <tripinfo id="NS_174" depart="175.00" departLane="2i_0" departPos="4.10" departSpeed="0.00" departDelay="1.00" arrival="273.00" arrivalLane="1o_0" arrivalPos="492.80" arrivalSpeed="11.52" duration="98.00" routeLength="995.90" waitingTime="4.00" waitingCount="1" stopTime="0.00" timeLoss="35.60" rerouteNo="0" devices="tripinfo_NS_174" vType="car" speedFactor="1.14" vaporized=""/>
    <tripinfo id="NS_175" depart="178.00" departLane="2i_0" departPos="4.10" departSpeed="0.00" departDelay="3.00" arrival="273.00" arrivalLane="4o_0" arrivalPos="492.80" arrivalSpeed="9.95" duration="95.00" routeLength="990.53" waitingTime="3.00" waitingCount="1" stopTime="0.00" timeLoss="22.10" rerouteNo="0" devices="tripinfo_NS_175" vType="car" speedFactor="0.97" vaporized=""/>
    <tripinfo id="NS_194" depart="194.00" departLane="2i_0" departPos="4.10" departSpeed="0.00" departDelay="0.00" arrival="276.00" arrivalLane="4o_0" arrivalPos="492.80" arrivalSpeed="10.66" duration="82.00" routeLength="990.53" waitingTime="0.00" waitingCount="0" stopTime="0.00" timeLoss="9.56" rerouteNo="0" devices="tripinfo_NS_194" vType="car" speedFactor="0.97" vaporized=""/>
    <tripinfo id="WE_176" depart="176.00" departLane="1i_0" departPos="4.10" departSpeed="0.00" departDelay="0.00" arrival="278.00" arrivalLane="4o_0" arrivalPos="492.80" arrivalSpeed="11.74" duration="102.00" routeLength="995.70" waitingTime="15.00" waitingCount="3" stopTime="0.00" timeLoss="36.13" rerouteNo="0" devices="tripinfo_WE_176" vType="car" speedFactor="1.08" vaporized=""/>
    <tripinfo id="WE_180" depart="180.00" departLane="1i_0" departPos="10.10" departSpeed="0.00" departDelay="0.00" arrival="280.00" arrivalLane="3o_0" arrivalPos="492.80" arrivalSpeed="11.12" duration="100.00" routeLength="984.53" waitingTime="8.00" waitingCount="1" stopTime="0.00" timeLoss="30.42" rerouteNo="0" devices="tripinfo_WE_180" vType="truck" speedFactor="1.01" vaporized=""/>
    <tripinfo id="SN_141" depart="143.00" departLane="3i_0" departPos="4.10" departSpeed="0.00" departDelay="2.00" arrival="285.00" arrivalLane="1o_0" arrivalPos="492.80" arrivalSpeed="11.07" duration="142.00" routeLength="995.70" waitingTime="12.00" waitingCount="5" stopTime="0.00" timeLoss="73.46" rerouteNo="0" devices="tripinfo_SN_141" vType="car" speedFactor="1.04" vaporized=""/>
    <tripinfo id="EW_192" depart="192.00" departLane="4i_0" departPos="4.10" departSpeed="0.00" departDelay="0.00" arrival="289.00" arrivalLane="3o_0" arrivalPos="492.80" arrivalSpeed="9.61" duration="97.00" routeLength="995.90" waitingTime="3.00" waitingCount="1" stopTime="0.00" timeLoss="19.01" rerouteNo="0" devices="tripinfo_EW_192" vType="car" speedFactor="0.91" vaporized=""/>
    <tripinfo id="WE_186" depart="186.00" departLane="1i_0" departPos="4.10" departSpeed="0.00" departDelay="0.00" arrival="290.00" arrivalLane="4o_0" arrivalPos="492.80" arrivalSpeed="9.30" duration="104.00" routeLength="995.70" waitingTime="6.00" waitingCount="1" stopTime="0.00" timeLoss="28.08" rerouteNo="0" devices="tripinfo_WE_186" vType="car" speedFactor="0.94" vaporized=""/>
    <tripinfo id="WE_188" depart="189.00" departLane="1i_0" departPos="4.10" departSpeed="0.00" departDelay="1.00" arrival="295.00" arrivalLane="3o_0" arrivalPos="492.80" arrivalSpeed="9.53" duration="106.00" routeLength="990.53" waitingTime="5.00" waitingCount="1" stopTime="0.00" timeLoss="25.84" rerouteNo="0" devices="tripinfo_WE_188" vType="car" speedFactor="0.88" vaporized=""/>
    <tripinfo id="EW_193" depart="195.00" departLane="4i_0" departPos="4.10" departSpeed="0.00" departDelay="2.00" arrival="297.00" arrivalLane="3o_0" arrivalPos="492.80" arrivalSpeed="10.90" duration="102.00" routeLength="995.90" waitingTime="4.00" waitingCount="2" stopTime="0.00" timeLoss="32.08" rerouteNo="0" devices="tripinfo_EW_193" vType="car" speedFactor="1.02" vaporized=""/>
    <tripinfo id="SN_159" depart="159.00" departLane="3i_0" departPos="4.10" departSpeed="0.00" departDelay="0.00" arrival="298.00" arrivalLane="4o_0" arrivalPos="492.80" arrivalSpeed="8.74" duration="139.00" routeLength="995.90" waitingTime="11.00" waitingCount="6" stopTime="0.00" timeLoss="60.12" rerouteNo="0" devices="tripinfo_SN_159" vType="car" speedFactor="0.90" vaporized=""/>
    <tripinfo id="EW_194" depart="198.00" departLane="4i_0" departPos="4.10" departSpeed="0.00" departDelay="4.00" arrival="299.00" arrivalLane="1o_0" arrivalPos="492.80" arrivalSpeed="10.73" duration="101.00" routeLength="990.53" waitingTime="5.00" waitingCount="2" stopTime="0.00" timeLoss="31.70" rerouteNo="0" devices="tripinfo_EW_194" vType="car" speedFactor="1.02" vaporized=""/>
    <tripinfo id="SN_168" depart="168.00" departLane="3i_0" departPos="4.10" departSpeed="0.00" departDelay="0.00" arrival="300.00" arrivalLane="4o_0" arrivalPos="492.80" arrivalSpeed="11.65" duration="132.00" routeLength="995.90" waitingTime="11.00" waitingCount="6" stopTime="0.00" timeLoss="66.70" rerouteNo="0" devices="tripinfo_SN_168" vType="car" speedFactor="1.10" vaporized=""/>
    <tripinfo id="WE_192" depart="192.00" departLane="1i_0" departPos="4.10" departSpeed="0.00" departDelay="0.00" arrival="300.00" arrivalLane="2o_0" arrivalPos="492.80" arrivalSpeed="9.62" duration="108.00" routeLength="995.90" waitingTime="5.00" waitingCount="2" stopTime="0.00" timeLoss="29.96" rerouteNo="0" devices="tripinfo_WE_192" vType="car" speedFactor="0.91" vaporized=""/>
    <tripinfo id="WE_206" depart="206.00" departLane="1i_0" departPos="4.10" departSpeed="0.00" departDelay="0.00" arrival="300.00" arrivalLane="3o_0" arrivalPos="492.80" arrivalSpeed="9.18" duration="94.00" routeLength="990.53" waitingTime="1.00" waitingCount="1" stopTime="0.00" timeLoss="19.18" rerouteNo="0" devices="tripinfo_WE_206" vType="car" speedFactor="0.94" vaporized=""/>
    <tripinfo id="NS_212" depart="212.00" departLane="2i_0" departPos="4.10" departSpeed="0.00" departDelay="0.00" arrival="302.00" arrivalLane="3o_0" arrivalPos="492.80" arrivalSpeed="10.61" duration="90.00" routeLength="995.70" waitingTime="4.00" waitingCount="1" stopTime="0.00" timeLoss="22.86" rerouteNo="0" devices="tripinfo_NS_212" vType="car" speedFactor="1.06" vaporized=""/>
    <tripinfo id="EW_215" depart="215.00" departLane="4i_0" departPos="4.10" departSpeed="0.00" departDelay="0.00" arrival="307.00" arrivalLane="2o_0" arrivalPos="492.80" arrivalSpeed="10.07" duration="92.00" routeLength="995.70" waitingTime="1.00" waitingCount="1" stopTime="0.00" timeLoss="19.57" rerouteNo="0" devices="tripinfo_EW_215" vType="car" speedFactor="0.98" vaporized=""/>
    <tripinfo id="NS_222" depart="222.00" departLane="2i_0" departPos="4.10" departSpeed="0.00" departDelay="0.00" arrival="320.00" arrivalLane="4o_0" arrivalPos="492.80" arrivalSpeed="10.96" duration="98.00" routeLength="990.53" waitingTime="17.00" waitingCount="1" stopTime="0.00" timeLoss="33.18" rerouteNo="0" devices="tripinfo_NS_222" vType="car" speedFactor="1.09" vaporized=""/>
    <tripinfo id="NS_219" depart="219.00" departLane="2i_0" departPos="4.10" departSpeed="0.00" departDelay="0.00" arrival="324.00" arrivalLane="3o_0" arrivalPos="492.80" arrivalSpeed="9.96" duration="105.00" routeLength="995.70" waitingTime="19.00" waitingCount="1" stopTime="0.00" timeLoss="32.65" rerouteNo="0" devices="tripinfo_NS_219" vType="car" speedFactor="0.98" vaporized=""/>
    <tripinfo id="WE_213" depart="213.00" departLane="1i_0" departPos="4.10" departSpeed="0.00" departDelay="0.00" arrival="329.00" arrivalLane="4o_0" arrivalPos="492.80" arrivalSpeed="9.86" duration="116.00" routeLength="995.70" waitingTime="22.00" waitingCount="1" stopTime="0.00" timeLoss="41.97" rerouteNo="0" devices="tripinfo_WE_213" vType="car" speedFactor="0.96" vaporized=""/>
    <tripinfo id="SN_174" depart="175.00" departLane="3i_0" departPos="4.10" departSpeed="0.00" departDelay="1.00" arrival="331.00" arrivalLane="4o_0" arrivalPos="492.80" arrivalSpeed="10.35" duration="156.00" routeLength="995.90" waitingTime="27.00" waitingCount="7" stopTime="0.00" timeLoss="86.70" rerouteNo="0" devices="tripinfo_SN_174" vType="car" speedFactor="1.02" vaporized=""/>
    <tripinfo id="SN_176" depart="178.00" departLane="3i_0" departPos="10.10" departSpeed="0.00" departDelay="2.00" arrival="334.00" arrivalLane="4o_0" arrivalPos="492.80" arrivalSpeed="11.46" duration="156.00" routeLength="989.90" waitingTime="23.00" waitingCount="3" stopTime="0.00" timeLoss="88.18" rerouteNo="0" devices="tripinfo_SN_176" vType="truck" speedFactor="1.06" vaporized=""/>