<?xml version="1.0" encoding="UTF-8"?>

<!-- generated on 2024-05-05 21:42:55 by Eclipse SUMO sumo Version 1.19.0
<configuration xmlns:xsi="http://www.w3.org/2001/XMLSchema-instance" xsi:noNamespaceSchemaLocation="http://sumo.dlr.de/xsd/sumoConfiguration.xsd">

    <input>
        <net-file value="twoone.net.xml"/>
        <route-files value="route_gen.rou.xml"/>
    </input>

    <output>
        <tripinfo-output value="tripinfo_epi93.xml"/>
    </output>

    <report>
        <no-warnings value="true"/>
    </report>

    <traci_server>
        <remote-port value="60509"/>
    </traci_server>

</configuration>
-->

<tripinfos xmlns:xsi="http://www.w3.org/2001/XMLSchema-instance" xsi:noNamespaceSchemaLocation="http://sumo.dlr.de/xsd/tripinfo_file.xsd">
    <tripinfo id="WE_0" depart="0.00" departLane="1i_0" departPos="4.10" departSpeed="0.00" departDelay="0.00" arrival="74.00" arrivalLane="3o_0" arrivalPos="492.80" arrivalSpeed="11.56" duration="74.00" routeLength="990.53" waitingTime="0.00" waitingCount="0" stopTime="0.00" timeLoss="7.12" rerouteNo="0" devices="tripinfo_WE_0" vType="car" speedFactor="1.06" vaporized=""/>
    <tripinfo id="WE_11" depart="11.00" departLane="1i_0" departPos="4.10" departSpeed="0.00" departDelay="0.00" arrival="84.00" arrivalLane="3o_0" arrivalPos="492.80" arrivalSpeed="11.53" duration="73.00" routeLength="990.53" waitingTime="0.00" waitingCount="0" stopTime="0.00" timeLoss="7.53" rerouteNo="0" devices="tripinfo_WE_11" vType="car" speedFactor="1.08" vaporized=""/>
    <tripinfo id="SN_0" depart="0.00" departLane="3i_0" departPos="4.10" departSpeed="0.00" departDelay="0.00" arrival="87.00" arrivalLane="2o_0" arrivalPos="492.80" arrivalSpeed="10.33" duration="87.00" routeLength="990.53" waitingTime="1.00" waitingCount="1" stopTime="0.00" timeLoss="11.84" rerouteNo="0" devices="tripinfo_SN_0" vType="car" speedFactor="0.94" vaporized=""/>
    <tripinfo id="SN_6" depart="6.00" departLane="3i_0" departPos="4.10" departSpeed="0.00" departDelay="0.00" arrival="90.00" arrivalLane="2o_0" arrivalPos="492.80" arrivalSpeed="10.18" duration="84.00" routeLength="990.53" waitingTime="0.00" waitingCount="0" stopTime="0.00" timeLoss="13.96" rerouteNo="0" devices="tripinfo_SN_6" vType="car" speedFactor="1.01" vaporized=""/>
    <tripinfo id="NS_20" depart="20.00" departLane="2i_0" departPos="4.10" departSpeed="0.00" departDelay="0.00" arrival="96.00" arrivalLane="4o_0" arrivalPos="492.80" arrivalSpeed="11.27" duration="76.00" routeLength="990.53" waitingTime="0.00" waitingCount="0" stopTime="0.00" timeLoss="7.61" rerouteNo="0" devices="tripinfo_NS_20" vType="car" speedFactor="1.03" vaporized=""/>
    <tripinfo id="NS_21" depart="23.00" departLane="2i_0" departPos="4.10" departSpeed="0.00" departDelay="2.00" arrival="98.00" arrivalLane="4o_0" arrivalPos="492.80" arrivalSpeed="10.44" duration="75.00" routeLength="990.53" waitingTime="0.00" waitingCount="0" stopTime="0.00" timeLoss="7.83" rerouteNo="0" devices="tripinfo_NS_21" vType="car" speedFactor="1.05" vaporized=""/>
    <tripinfo id="WE_32" depart="32.00" departLane="1i_0" departPos="4.10" departSpeed="0.00" departDelay="0.00" arrival="117.00" arrivalLane="4o_0" arrivalPos="492.80" arrivalSpeed="10.01" duration="85.00" routeLength="995.70" waitingTime="0.00" waitingCount="0" stopTime="0.00" timeLoss="9.54" rerouteNo="0" devices="tripinfo_WE_32" vType="car" speedFactor="0.94" vaporized=""/>
    <tripinfo id="SN_20" depart="20.00" departLane="3i_0" departPos="4.10" departSpeed="0.00" departDelay="0.00" arrival="121.00" arrivalLane="1o_0" arrivalPos="492.80" arrivalSpeed="8.46" duration="101.00" routeLength="995.70" waitingTime="1.00" waitingCount="1" stopTime="0.00" timeLoss="15.94" rerouteNo="0" devices="tripinfo_SN_20" vType="car" speedFactor="0.83" vaporized=""/>
    <tripinfo id="SN_26" depart="26.00" departLane="3i_0" departPos="4.10" departSpeed="0.00" departDelay="0.00" arrival="122.00" arrivalLane="2o_0" arrivalPos="492.80" arrivalSpeed="9.32" duration="96.00" routeLength="990.53" waitingTime="1.00" waitingCount="1" stopTime="0.00" timeLoss="16.00" rerouteNo="0" devices="tripinfo_SN_26" vType="car" speedFactor="0.89" vaporized=""/>
    <tripinfo id="NS_46" depart="46.00" departLane="2i_0" departPos="4.10" departSpeed="0.00" departDelay="0.00" arrival="124.00" arrivalLane="3o_0" arrivalPos="492.80" arrivalSpeed="10.64" duration="78.00" routeLength="995.70" waitingTime="0.00" waitingCount="0" stopTime="0.00" timeLoss="10.11" rerouteNo="0" devices="tripinfo_NS_46" vType="car" speedFactor="1.05" vaporized=""/>
    <tripinfo id="NS_32" depart="32.00" departLane="2i_0" departPos="4.10" departSpeed="0.00" departDelay="0.00" arrival="125.00" arrivalLane="4o_0" arrivalPos="492.80" arrivalSpeed="9.39" duration="93.00" routeLength="990.53" waitingTime="0.00" waitingCount="0" stopTime="0.00" timeLoss="10.24" rerouteNo="0" devices="tripinfo_NS_32" vType="car" speedFactor="0.86" vaporized=""/>
    <tripinfo id="WE_49" depart="49.00" departLane="1i_0" departPos="4.10" departSpeed="0.00" departDelay="0.00" arrival="126.00" arrivalLane="4o_0" arrivalPos="492.80" arrivalSpeed="11.05" duration="77.00" routeLength="995.70" waitingTime="0.00" waitingCount="0" stopTime="0.00" timeLoss="13.99" rerouteNo="0" devices="tripinfo_WE_49" vType="car" speedFactor="1.12" vaporized=""/>
    <tripinfo id="NS_52" depart="52.00" departLane="2i_0" departPos="4.10" departSpeed="0.00" departDelay="0.00" arrival="136.00" arrivalLane="1o_0" arrivalPos="492.80" arrivalSpeed="10.29" duration="84.00" routeLength="995.90" waitingTime="0.00" waitingCount="0" stopTime="0.00" timeLoss="8.50" rerouteNo="0" devices="tripinfo_NS_52" vType="car" speedFactor="0.94" vaporized=""/>
    <tripinfo id="WE_63" depart="63.00" departLane="1i_0" departPos="4.10" departSpeed="0.00" departDelay="0.00" arrival="146.00" arrivalLane="2o_0" arrivalPos="492.80" arrivalSpeed="10.28" duration="83.00" routeLength="995.90" waitingTime="0.00" waitingCount="0" stopTime="0.00" timeLoss="7.57" rerouteNo="0" devices="tripinfo_WE_63" vType="car" speedFactor="0.94" vaporized=""/>
    <tripinfo id="WE_68" depart="68.00" departLane="1i_0" departPos="4.10" departSpeed="0.00" departDelay="0.00" arrival="148.00" arrivalLane="2o_0" arrivalPos="492.80" arrivalSpeed="12.16" duration="80.00" routeLength="995.90" waitingTime="0.00" waitingCount="0" stopTime="0.00" timeLoss="18.46" rerouteNo="0" devices="tripinfo_WE_68" vType="car" speedFactor="1.16" vaporized=""/>
    <tripinfo id="EW_38" depart="38.00" departLane="4i_0" departPos="4.10" departSpeed="0.00" departDelay="0.00" arrival="154.00" arrivalLane="2o_0" arrivalPos="492.80" arrivalSpeed="11.01" duration="116.00" routeLength="995.70" waitingTime="38.00" waitingCount="1" stopTime="0.00" timeLoss="51.12" rerouteNo="0" devices="tripinfo_EW_38" vType="car" speedFactor="1.09" vaporized=""/>
    <tripinfo id="WE_69" depart="72.00" departLane="1i_0" departPos="10.10" departSpeed="0.00" departDelay="3.00" arrival="155.00" arrivalLane="3o_0" arrivalPos="492.80" arrivalSpeed="10.62" duration="83.00" routeLength="984.53" waitingTime="0.00" waitingCount="0" stopTime="0.00" timeLoss="13.14" rerouteNo="0" devices="tripinfo_WE_69" vType="truck" speedFactor="1.01" vaporized=""/>
    <tripinfo id="SN_40" depart="40.00" departLane="3i_0" departPos="10.10" departSpeed="0.00" departDelay="0.00" arrival="162.00" arrivalLane="4o_0" arrivalPos="492.80" arrivalSpeed="11.04" duration="122.00" routeLength="989.90" waitingTime="29.00" waitingCount="2" stopTime="0.00" timeLoss="52.04" rerouteNo="0" devices="tripinfo_SN_40" vType="truck" speedFactor="1.01" vaporized=""/>
    <tripinfo id="NS_80" depart="80.00" departLane="2i_0" departPos="4.10" departSpeed="0.00" departDelay="0.00" arrival="181.00" arrivalLane="3o_0" arrivalPos="492.80" arrivalSpeed="9.63" duration="101.00" routeLength="995.70" waitingTime="7.00" waitingCount="1" stopTime="0.00" timeLoss="20.03" rerouteNo="0" devices="tripinfo_NS_80" vType="car" speedFactor="0.87" vaporized=""/>
    <tripinfo id="EW_50" depart="50.00" departLane="4i_0" departPos="4.10" departSpeed="0.00" departDelay="0.00" arrival="183.00" arrivalLane="3o_0" arrivalPos="492.80" arrivalSpeed="10.48" duration="133.00" routeLength="995.90" waitingTime="38.00" waitingCount="2" stopTime="0.00" timeLoss="61.51" rerouteNo="0" devices="tripinfo_EW_50" vType="car" speedFactor="0.99" vaporized=""/>
    <tripinfo id="WE_91" depart="91.00" departLane="1i_0" departPos="4.10" departSpeed="0.00" departDelay="0.00" arrival="185.00" arrivalLane="3o_0" arrivalPos="492.80" arrivalSpeed="11.42" duration="94.00" routeLength="990.53" waitingTime="7.00" waitingCount="2" stopTime="0.00" timeLoss="31.36" rerouteNo="0" devices="tripinfo_WE_91" vType="car" speedFactor="1.13" vaporized=""/>
    <tripinfo id="NS_91" depart="91.00" departLane="2i_0" departPos="4.10" departSpeed="0.00" departDelay="0.00" arrival="185.00" arrivalLane="1o_0" arrivalPos="492.80" arrivalSpeed="9.85" duration="94.00" routeLength="995.90" waitingTime="0.00" waitingCount="0" stopTime="0.00" timeLoss="17.42" rerouteNo="0" devices="tripinfo_NS_91" vType="car" speedFactor="0.93" vaporized=""/>
    <tripinfo id="WE_80" depart="80.00" departLane="1i_0" departPos="4.10" departSpeed="0.00" departDelay="0.00" arrival="187.00" arrivalLane="4o_0" arrivalPos="492.80" arrivalSpeed="8.63" duration="107.00" routeLength="995.70" waitingTime="6.00" waitingCount="1" stopTime="0.00" timeLoss="20.78" rerouteNo="0" devices="tripinfo_WE_80" vType="car" speedFactor="0.83" vaporized=""/>
    <tripinfo id="SN_50" depart="50.00" departLane="3i_0" departPos="10.10" departSpeed="0.00" departDelay="0.00" arrival="189.00" arrivalLane="4o_0" arrivalPos="492.80" arrivalSpeed="9.79" duration="139.00" routeLength="989.90" waitingTime="29.00" waitingCount="4" stopTime="0.00" timeLoss="65.77" rerouteNo="0" devices="tripinfo_SN_50" vType="truck" speedFactor="0.96" vaporized=""/>
    <tripinfo id="NS_100" depart="100.00" departLane="2i_0" departPos="10.10" departSpeed="0.00" departDelay="0.00" arrival="189.00" arrivalLane="1o_0" arrivalPos="492.80" arrivalSpeed="10.59" duration="89.00" routeLength="989.90" waitingTime="0.00" waitingCount="0" stopTime="0.00" timeLoss="18.20" rerouteNo="0" devices="tripinfo_NS_100" vType="truck" speedFactor="1.00" vaporized=""/>
    <tripinfo id="SN_68" depart="68.00" departLane="3i_0" departPos="4.10" departSpeed="0.00" departDelay="0.00" arrival="192.00" arrivalLane="4o_0" arrivalPos="492.80" arrivalSpeed="10.76" duration="124.00" routeLength="995.90" waitingTime="20.00" waitingCount="5" stopTime="0.00" timeLoss="53.91" rerouteNo="0" devices="tripinfo_SN_68" vType="car" speedFactor="1.02" vaporized=""/>
    <tripinfo id="EW_52" depart="52.00" departLane="4i_0" departPos="4.10" departSpeed="0.00" departDelay="0.00" arrival="193.00" arrivalLane="3o_0" arrivalPos="492.80" arrivalSpeed="8.57" duration="141.00" routeLength="995.90" waitingTime="34.00" waitingCount="3" stopTime="0.00" timeLoss="60.69" rerouteNo="0" devices="tripinfo_EW_52" vType="car" speedFactor="0.88" vaporized=""/>
    <tripinfo id="WE_113" depart="113.00" departLane="1i_0" departPos="4.10" departSpeed="0.00" departDelay="0.00" arrival="195.00" arrivalLane="3o_0" arrivalPos="492.80" arrivalSpeed="12.01" duration="82.00" routeLength="990.53" waitingTime="4.00" waitingCount="1" stopTime="0.00" timeLoss="22.00" rerouteNo="0" devices="tripinfo_WE_113" vType="car" speedFactor="1.18" vaporized=""/>
    <tripinfo id="EW_75" depart="75.00" departLane="4i_0" departPos="4.10" departSpeed="0.00" departDelay="0.00" arrival="197.00" arrivalLane="2o_0" arrivalPos="492.80" arrivalSpeed="10.44" duration="122.00" routeLength="995.70" waitingTime="17.00" waitingCount="4" stopTime="0.00" timeLoss="49.03" rerouteNo="0" devices="tripinfo_EW_75" vType="car" speedFactor="0.97" vaporized=""/>
    <tripinfo id="WE_107" depart="107.00" departLane="1i_0" departPos="4.10" departSpeed="0.00" departDelay="0.00" arrival="200.00" arrivalLane="2o_0" arrivalPos="492.80" arrivalSpeed="10.70" duration="93.00" routeLength="995.90" waitingTime="6.00" waitingCount="1" stopTime="0.00" timeLoss="20.08" rerouteNo="0" devices="tripinfo_WE_107" vType="car" speedFactor="0.97" vaporized=""/>
    <tripinfo id="NS_102" depart="104.00" departLane="2i_0" departPos="4.10" departSpeed="0.00" departDelay="2.00" arrival="202.00" arrivalLane="3o_0" arrivalPos="492.80" arrivalSpeed="11.11" duration="98.00" routeLength="995.70" waitingTime="8.00" waitingCount="1" stopTime="0.00" timeLoss="28.45" rerouteNo="0" devices="tripinfo_NS_102" vType="car" speedFactor="1.02" vaporized=""/>
    <tripinfo id="EW_93" depart="93.00" departLane="4i_0" departPos="4.10" departSpeed="0.00" departDelay="0.00" arrival="204.00" arrivalLane="3o_0" arrivalPos="492.80" arrivalSpeed="12.79" duration="111.00" routeLength="995.90" waitingTime="10.00" waitingCount="3" stopTime="0.00" timeLoss="49.22" rerouteNo="0" devices="tripinfo_EW_93" vType="car" speedFactor="1.15" vaporized=""/>
    <tripinfo id="SN_84" depart="84.00" departLane="3i_0" departPos="4.10" departSpeed="0.00" departDelay="0.00" arrival="206.00" arrivalLane="2o_0" arrivalPos="492.80" arrivalSpeed="9.09" duration="122.00" routeLength="990.53" waitingTime="11.00" waitingCount="5" stopTime="0.00" timeLoss="44.94" rerouteNo="0" devices="tripinfo_SN_84" vType="car" speedFactor="0.92" vaporized=""/>
    <tripinfo id="NS_113" depart="113.00" departLane="2i_0" departPos="4.10" departSpeed="0.00" departDelay="0.00" arrival="206.00" arrivalLane="3o_0" arrivalPos="492.80" arrivalSpeed="11.99" duration="93.00" routeLength="995.70" waitingTime="7.00" waitingCount="2" stopTime="0.00" timeLoss="28.19" rerouteNo="0" devices="tripinfo_NS_113" vType="car" speedFactor="1.10" vaporized=""/>
    <tripinfo id="EW_78" depart="78.00" departLane="4i_0" departPos="4.10" departSpeed="0.00" departDelay="0.00" arrival="207.00" arrivalLane="1o_0" arrivalPos="492.80" arrivalSpeed="9.03" duration="129.00" routeLength="990.53" waitingTime="18.00" waitingCount="3" stopTime="0.00" timeLoss="50.07" rerouteNo="0" devices="tripinfo_EW_78" vType="car" speedFactor="0.89" vaporized=""/>
    <tripinfo id="WE_114" depart="116.00" departLane="1i_0" departPos="4.10" departSpeed="0.00" departDelay="2.00" arrival="208.00" arrivalLane="3o_0" arrivalPos="492.80" arrivalSpeed="11.39" duration="92.00" routeLength="990.53" waitingTime="5.00" waitingCount="1" stopTime="0.00" timeLoss="23.88" rerouteNo="0" devices="tripinfo_WE_114" vType="car" speedFactor="1.03" vaporized=""/>
    <tripinfo id="EW_124" depart="126.00" departLane="4i_0" departPos="4.10" departSpeed="0.00" departDelay="2.00" arrival="209.00" arrivalLane="1o_0" arrivalPos="492.80" arrivalSpeed="11.17" duration="83.00" routeLength="990.53" waitingTime="0.00" waitingCount="0" stopTime="0.00" timeLoss="14.78" rerouteNo="0" devices="tripinfo_EW_124" vType="car" speedFactor="1.04" vaporized=""/>
    <tripinfo id="SN_91" depart="91.00" departLane="3i_0" departPos="4.10" departSpeed="0.00" departDelay="0.00" arrival="211.00" arrivalLane="4o_0" arrivalPos="492.80" arrivalSpeed="12.60" duration="120.00" routeLength="995.90" waitingTime="15.00" waitingCount="6" stopTime="0.00" timeLoss="60.16" rerouteNo="0" devices="tripinfo_SN_91" vType="car" speedFactor="1.18" vaporized=""/>
    <tripinfo id="SN_86" depart="87.00" departLane="3i_0" departPos="4.10" departSpeed="0.00" departDelay="1.00" arrival="214.00" arrivalLane="1o_0" arrivalPos="492.80" arrivalSpeed="10.33" duration="127.00" routeLength="995.70" waitingTime="14.00" waitingCount="5" stopTime="0.00" timeLoss="51.88" rerouteNo="0" devices="tripinfo_SN_86" vType="car" speedFactor="0.95" vaporized=""/>
    <tripinfo id="NS_121" depart="122.00" departLane="2i_0" departPos="4.10" departSpeed="0.00" departDelay="1.00" arrival="217.00" arrivalLane="3o_0" arrivalPos="492.80" arrivalSpeed="9.97" duration="95.00" routeLength="995.70" waitingTime="1.00" waitingCount="1" stopTime="0.00" timeLoss="20.69" rerouteNo="0" devices="tripinfo_NS_121" vType="car" speedFactor="0.96" vaporized=""/>
    <tripinfo id="NS_126" depart="126.00" departLane="2i_0" departPos="10.10" departSpeed="0.00" departDelay="0.00" arrival="222.00" arrivalLane="4o_0" arrivalPos="492.80" arrivalSpeed="11.07" duration="96.00" routeLength="984.53" waitingTime="1.00" waitingCount="1" stopTime="0.00" timeLoss="28.32" rerouteNo="0" devices="tripinfo_NS_126" vType="truck" speedFactor="1.04" vaporized=""/>
    <tripinfo id="EW_147" depart="147.00" departLane="4i_0" departPos="4.10" departSpeed="0.00" departDelay="0.00" arrival="225.00" arrivalLane="3o_0" arrivalPos="492.80" arrivalSpeed="10.83" duration="78.00" routeLength="995.90" waitingTime="0.00" waitingCount="0" stopTime="0.00" timeLoss="8.06" rerouteNo="0" devices="tripinfo_EW_147" vType="car" speedFactor="1.02" vaporized=""/>
    <tripinfo id="WE_137" depart="137.00" departLane="1i_0" departPos="4.10" departSpeed="0.00" departDelay="0.00" arrival="226.00" arrivalLane="2o_0" arrivalPos="492.80" arrivalSpeed="8.79" duration="89.00" routeLength="995.90" waitingTime="0.00" waitingCount="0" stopTime="0.00" timeLoss="8.00" rerouteNo="0" devices="tripinfo_WE_137" vType="car" speedFactor="0.88" vaporized=""/>
    <tripinfo id="SN_94" depart="94.00" departLane="3i_0" departPos="4.10" departSpeed="0.00" departDelay="0.00" arrival="227.00" arrivalLane="4o_0" arrivalPos="492.80" arrivalSpeed="10.03" duration="133.00" routeLength="995.90" waitingTime="14.00" waitingCount="7" stopTime="0.00" timeLoss="62.74" rerouteNo="0" devices="tripinfo_SN_94" vType="car" speedFactor="1.01" vaporized=""/>
    <tripinfo id="WE_148" depart="148.00" departLane="1i_0" departPos="4.10" departSpeed="0.00" departDelay="0.00" arrival="227.00" arrivalLane="3o_0" arrivalPos="492.80" arrivalSpeed="11.84" duration="79.00" routeLength="990.53" waitingTime="0.00" waitingCount="0" stopTime="0.00" timeLoss="14.25" rerouteNo="0" devices="tripinfo_WE_148" vType="car" speedFactor="1.10" vaporized=""/>
    <tripinfo id="SN_98" depart="98.00" departLane="3i_0" departPos="4.10" departSpeed="0.00" departDelay="0.00" arrival="228.00" arrivalLane="2o_0" arrivalPos="492.80" arrivalSpeed="12.29" duration="130.00" routeLength="990.53" waitingTime="13.00" waitingCount="6" stopTime="0.00" timeLoss="69.28" rerouteNo="0" devices="tripinfo_SN_98" vType="car" speedFactor="1.17" vaporized=""/>
    <tripinfo id="EW_149" depart="149.00" departLane="4i_0" departPos="4.10" departSpeed="0.00" departDelay="0.00" arrival="229.00" arrivalLane="1o_0" arrivalPos="492.80" arrivalSpeed="10.00" duration="80.00" routeLength="990.53" waitingTime="0.00" waitingCount="0" stopTime="0.00" timeLoss="9.83" rerouteNo="0" devices="tripinfo_EW_149" vType="car" speedFactor="1.00" vaporized=""/>
    <tripinfo id="NS_131" depart="131.00" departLane="2i_0" departPos="4.10" departSpeed="0.00" departDelay="0.00" arrival="232.00" arrivalLane="3o_0" arrivalPos="492.80" arrivalSpeed="10.43" duration="101.00" routeLength="995.70" waitingTime="2.00" waitingCount="1" stopTime="0.00" timeLoss="29.93" rerouteNo="0" devices="tripinfo_NS_131" vType="car" speedFactor="1.00" vaporized=""/>
    <tripinfo id="NS_165" depart="165.00" departLane="2i_0" departPos="4.10" departSpeed="0.00" departDelay="0.00" arrival="236.00" arrivalLane="4o_0" arrivalPos="492.80" arrivalSpeed="11.65" duration="71.00" routeLength="990.53" waitingTime="0.00" waitingCount="0" stopTime="0.00" timeLoss="8.10" rerouteNo="0" devices="tripinfo_NS_165" vType="car" speedFactor="1.12" vaporized=""/>
    <tripinfo id="SN_121" depart="121.00" departLane="3i_0" departPos="4.10" departSpeed="0.00" departDelay="0.00" arrival="238.00" arrivalLane="2o_0" arrivalPos="492.80" arrivalSpeed="11.20" duration="117.00" routeLength="990.53" waitingTime="5.00" waitingCount="2" stopTime="0.00" timeLoss="52.29" rerouteNo="0" devices="tripinfo_SN_121" vType="car" speedFactor="1.09" vaporized=""/>
    <tripinfo id="SN_113" depart="113.00" departLane="3i_0" departPos="4.10" departSpeed="0.00" departDelay="0.00" arrival="240.00" arrivalLane="1o_0" arrivalPos="492.80" arrivalSpeed="10.00" duration="127.00" routeLength="995.70" waitingTime="6.00" waitingCount="4" stopTime="0.00" timeLoss="48.75" rerouteNo="0" devices="tripinfo_SN_113" vType="car" speedFactor="0.90" vaporized=""/>
    <tripinfo id="SN_125" depart="125.00" departLane="3i_0" departPos="4.10" departSpeed="0.00" departDelay="0.00" arrival="242.00" arrivalLane="2o_0" arrivalPos="492.80" arrivalSpeed="10.31" duration="117.00" routeLength="990.53" waitingTime="5.00" waitingCount="3" stopTime="0.00" timeLoss="48.79" rerouteNo="0" devices="tripinfo_SN_125" vType="car" speedFactor="1.04" vaporized=""/>
    <tripinfo id="EW_154" depart="154.00" departLane="4i_0" departPos="4.10" departSpeed="0.00" departDelay="0.00" arrival="242.00" arrivalLane="1o_0" arrivalPos="492.80" arrivalSpeed="10.31" duration="88.00" routeLength="990.53" waitingTime="6.00" waitingCount="1" stopTime="0.00" timeLoss="17.45" rerouteNo="0" devices="tripinfo_EW_154" vType="car" speedFactor="1.00" vaporized=""/>
    <tripinfo id="NS_166" depart="168.00" departLane="2i_0" departPos="4.10" departSpeed="0.00" departDelay="2.00" arrival="246.00" arrivalLane="1o_0" arrivalPos="492.80" arrivalSpeed="10.29" duration="78.00" routeLength="995.90" waitingTime="0.00" waitingCount="0" stopTime="0.00" timeLoss="8.12" rerouteNo="0" devices="tripinfo_NS_166" vType="car" speedFactor="1.02" vaporized=""/>
    <tripinfo id="WE_165" depart="165.00" departLane="1i_0" departPos="4.10" departSpeed="0.00" departDelay="0.00" arrival="247.00" arrivalLane="4o_0" arrivalPos="492.80" arrivalSpeed="11.69" duration="82.00" routeLength="995.70" waitingTime="2.00" waitingCount="1" stopTime="0.00" timeLoss="16.77" rerouteNo="0" devices="tripinfo_WE_165" vType="car" speedFactor="1.08" vaporized=""/>
    <tripinfo id="NS_169" depart="171.00" departLane="2i_0" departPos="4.10" departSpeed="0.00" departDelay="2.00" arrival="257.00" arrivalLane="4o_0" arrivalPos="492.80" arrivalSpeed="9.64" duration="86.00" routeLength="990.53" waitingTime="0.00" waitingCount="0" stopTime="0.00" timeLoss="10.47" rerouteNo="0" devices="tripinfo_NS_169" vType="car" speedFactor="0.94" vaporized=""/>
    <tripinfo id="SN_136" depart="136.00" departLane="3i_0" departPos="4.10" departSpeed="0.00" departDelay="0.00" arrival="259.00" arrivalLane="1o_0" arrivalPos="492.80" arrivalSpeed="9.46" duration="123.00" routeLength="995.70" waitingTime="5.00" waitingCount="4" stopTime="0.00" timeLoss="44.31" rerouteNo="0" devices="tripinfo_SN_136" vType="car" speedFactor="0.90" vaporized=""/>
    <tripinfo id="WE_170" depart="170.00" departLane="1i_0" departPos="4.10" departSpeed="0.00" departDelay="0.00" arrival="259.00" arrivalLane="3o_0" arrivalPos="492.80" arrivalSpeed="9.61" duration="89.00" routeLength="990.53" waitingTime="0.00" waitingCount="0" stopTime="0.00" timeLoss="8.85" rerouteNo="0" devices="tripinfo_WE_170" vType="car" speedFactor="0.88" vaporized=""/>
    <tripinfo id="WE_171" depart="172.00" departLane="1i_0" departPos="4.10" departSpeed="0.00" departDelay="1.00" arrival="260.00" arrivalLane="2o_0" arrivalPos="492.80" arrivalSpeed="9.44" duration="88.00" routeLength="995.90" waitingTime="0.00" waitingCount="0" stopTime="0.00" timeLoss="9.95" rerouteNo="0" devices="tripinfo_WE_171" vType="car" speedFactor="0.91" vaporized=""/>
    <tripinfo id="EW_158" depart="162.00" departLane="4i_0" departPos="4.10" departSpeed="0.00" departDelay="4.00" arrival="262.00" arrivalLane="2o_0" arrivalPos="492.80" arrivalSpeed="12.09" duration="100.00" routeLength="995.70" waitingTime="12.00" waitingCount="2" stopTime="0.00" timeLoss="37.58" rerouteNo="0" devices="tripinfo_EW_158" vType="car" speedFactor="1.14" vaporized=""/>
    <tripinfo id="EW_155" depart="158.00" departLane="4i_0" departPos="10.10" departSpeed="0.00" departDelay="3.00" arrival="265.00" arrivalLane="3o_0" arrivalPos="492.80" arrivalSpeed="10.02" duration="107.00" routeLength="989.90" waitingTime="12.00" waitingCount="2" stopTime="0.00" timeLoss="32.74" rerouteNo="0" devices="tripinfo_EW_155" vType="truck" speedFactor="0.95" vaporized=""/>
    <tripinfo id="SN_137" depart="140.00" departLane="3i_0" departPos="10.10" departSpeed="0.00" departDelay="3.00" arrival="267.00" arrivalLane="4o_0" arrivalPos="492.80" arrivalSpeed="9.73" duration="127.00" routeLength="989.90" waitingTime="7.00" waitingCount="4" stopTime="0.00" timeLoss="50.51" rerouteNo="0" devices="tripinfo_SN_137" vType="truck" speedFactor="0.93" vaporized=""/>
    <tripinfo id="WE_181" depart="181.00" departLane="1i_0" departPos="4.10" departSpeed="0.00" departDelay="0.00" arrival="268.00" arrivalLane="2o_0" arrivalPos="492.80" arrivalSpeed="10.30" duration="87.00" routeLength="995.90" waitingTime="5.00" waitingCount="2" stopTime="0.00" timeLoss="18.94" rerouteNo="0" devices="tripinfo_WE_181" vType="car" speedFactor="1.04" vaporized=""/>
    <tripinfo id="SN_145" depart="147.00" departLane="3i_0" departPos="4.10" departSpeed="0.00" departDelay="2.00" arrival="271.00" arrivalLane="1o_0" arrivalPos="492.80" arrivalSpeed="11.84" duration="124.00" routeLength="995.70" waitingTime="5.00" waitingCount="3" stopTime="0.00" timeLoss="62.86" rerouteNo="0" devices="tripinfo_SN_145" vType="car" speedFactor="1.17" vaporized=""/>
    <tripinfo id="WE_182" depart="185.00" departLane="1i_0" departPos="4.10" departSpeed="0.00" departDelay="3.00" arrival="271.00" arrivalLane="3o_0" arrivalPos="492.80" arrivalSpeed="10.75" duration="86.00" routeLength="990.53" waitingTime="0.00" waitingCount="0" stopTime="0.00" timeLoss="17.32" rerouteNo="0" devices="tripinfo_WE_182" vType="car" speedFactor="1.02" vaporized=""/>
    <tripinfo id="SN_142" depart="144.00" departLane="3i_0" departPos="4.10" departSpeed="0.00" departDelay="2.00" arrival="282.00" arrivalLane="2o_0" arrivalPos="492.80" arrivalSpeed="8.72" duration="138.00" routeLength="990.53" waitingTime="9.00" waitingCount="5" stopTime="0.00" timeLoss="55.18" rerouteNo="0" devices="tripinfo_SN_142" vType="car" speedFactor="0.85" vaporized=""/>
    <tripinfo id="WE_192" depart="192.00" departLane="1i_0" departPos="10.10" departSpeed="0.00" departDelay="0.00" arrival="282.00" arrivalLane="4o_0" arrivalPos="492.80" arrivalSpeed="10.76" duration="90.00" routeLength="989.70" waitingTime="0.00" waitingCount="0" stopTime="0.00" timeLoss="17.38" rerouteNo="0" devices="tripinfo_WE_192" vType="truck" speedFactor="0.97" vaporized=""/>
    <tripinfo id="SN_158" depart="158.00" departLane="3i_0" departPos="4.10" departSpeed="0.00" departDelay="0.00" arrival="283.00" arrivalLane="2o_0" arrivalPos="492.80" arrivalSpeed="10.81" duration="125.00" routeLength="990.53" waitingTime="4.00" waitingCount="3" stopTime="0.00" timeLoss="56.37" rerouteNo="0" devices="tripinfo_SN_158" vType="car" speedFactor="1.02" vaporized=""/>
    <tripinfo id="EW_201" depart="201.00" departLane="4i_0" departPos="4.10" departSpeed="0.00" departDelay="0.00" arrival="288.00" arrivalLane="2o_0" arrivalPos="492.80" arrivalSpeed="9.77" duration="87.00" routeLength="995.70" waitingTime="0.00" waitingCount="0" stopTime="0.00" timeLoss="14.84" rerouteNo="0" devices="tripinfo_EW_201" vType="car" speedFactor="0.98" vaporized=""/>
    <tripinfo id="WE_200" depart="200.00" departLane="1i_0" departPos="4.10" departSpeed="0.00" departDelay="0.00" arrival="290.00" arrivalLane="2o_0" arrivalPos="492.80" arrivalSpeed="10.88" duration="90.00" routeLength="995.90" waitingTime="2.00" waitingCount="1" stopTime="0.00" timeLoss="22.36" rerouteNo="0" devices="tripinfo_WE_200" vType="car" speedFactor="1.06" vaporized=""/>
    <tripinfo id="SN_159" depart="161.00" departLane="3i_0" departPos="4.10" departSpeed="0.00" departDelay="2.00" arrival="294.00" arrivalLane="4o_0" arrivalPos="492.80" arrivalSpeed="9.73" duration="133.00" routeLength="995.90" waitingTime="6.00" waitingCount="5" stopTime="0.00" timeLoss="59.59" rerouteNo="0" devices="tripinfo_SN_159" vType="car" speedFactor="0.97" vaporized=""/>
    <tripinfo id="SN_166" depart="166.00" departLane="3i_0" departPos="4.10" departSpeed="0.00" departDelay="0.00" arrival="296.00" arrivalLane="1o_0" arrivalPos="492.80" arrivalSpeed="10.24" duration="130.00" routeLength="995.70" waitingTime="4.00" waitingCount="4" stopTime="0.00" timeLoss="58.17" rerouteNo="0" devices="tripinfo_SN_166" vType="car" speedFactor="0.99" vaporized=""/>
    <tripinfo id="SN_180" depart="181.00" departLane="3i_0" departPos="4.10" departSpeed="0.00" departDelay="1.00" arrival="307.00" arrivalLane="4o_0" arrivalPos="492.80" arrivalSpeed="9.40" duration="126.00" routeLength="995.90" waitingTime="3.00" waitingCount="3" stopTime="0.00" timeLoss="48.16" rerouteNo="0" devices="tripinfo_SN_180" vType="car" speedFactor="0.91" vaporized=""/>
    <tripinfo id="SN_181" depart="183.00" departLane="3i_0" departPos="4.10" departSpeed="0.00" departDelay="2.00" arrival="308.00" arrivalLane="1o_0" arrivalPos="492.80" arrivalSpeed="10.46" duration="125.00" routeLength="995.70" waitingTime="2.00" waitingCount="2" stopTime="0.00" timeLoss="55.89" rerouteNo="0" devices="tripinfo_SN_181" vType="car" speedFactor="1.02" vaporized=""/>
    <tripinfo id="NS_235" depart="235.00" departLane="2i_0" departPos="4.10" departSpeed="0.00" departDelay="0.00" arrival="316.00" arrivalLane="1o_0" arrivalPos="492.80" arrivalSpeed="10.30" duration="81.00" routeLength="995.90" waitingTime="0.00" waitingCount="0" stopTime="0.00" timeLoss="8.41" rerouteNo="0" devices="tripinfo_NS_235" vType="car" speedFactor="0.98" vaporized=""/>
    <tripinfo id="SN_187" depart="187.00" departLane="3i_0" departPos="4.10" departSpeed="0.00" departDelay="0.00" arrival="318.00" arrivalLane="2o_0" arrivalPos="492.80" arrivalSpeed="9.54" duration="131.00" routeLength="990.53" waitingTime="2.00" waitingCount="1" stopTime="0.00" timeLoss="58.68" rerouteNo="0" devices="tripinfo_SN_187" vType="car" speedFactor="0.97" vaporized=""/>