<?xml version="1.0" encoding="UTF-8"?>

<!-- generated on 2024-05-05 22:07:23 by Eclipse SUMO sumo Version 1.19.0
<configuration xmlns:xsi="http://www.w3.org/2001/XMLSchema-instance" xsi:noNamespaceSchemaLocation="http://sumo.dlr.de/xsd/sumoConfiguration.xsd">

    <input>
        <net-file value="twoone.net.xml"/>
        <route-files value="route_gen.rou.xml"/>
    </input>

    <output>
        <tripinfo-output value="tripinfo_epi203.xml"/>
    </output>

    <report>
        <no-warnings value="true"/>
    </report>

    <traci_server>
        <remote-port value="51775"/>
    </traci_server>

</configuration>
-->

<tripinfos xmlns:xsi="http://www.w3.org/2001/XMLSchema-instance" xsi:noNamespaceSchemaLocation="http://sumo.dlr.de/xsd/tripinfo_file.xsd">
    <tripinfo id="NS_4" depart="4.00" departLane="2i_0" departPos="4.10" departSpeed="0.00" departDelay="0.00" arrival="77.00" arrivalLane="4o_0" arrivalPos="492.80" arrivalSpeed="11.24" duration="73.00" routeLength="990.53" waitingTime="0.00" waitingCount="0" stopTime="0.00" timeLoss="7.93" rerouteNo="0" devices="tripinfo_NS_4" vType="car" speedFactor="1.08" vaporized=""/>
    <tripinfo id="SN_0" depart="0.00" departLane="3i_0" departPos="4.10" departSpeed="0.00" departDelay="0.00" arrival="80.00" arrivalLane="1o_0" arrivalPos="492.80" arrivalSpeed="10.64" duration="80.00" routeLength="995.70" waitingTime="0.00" waitingCount="0" stopTime="0.00" timeLoss="13.09" rerouteNo="0" devices="tripinfo_SN_0" vType="car" speedFactor="1.06" vaporized=""/>
    <tripinfo id="WE_1" depart="1.00" departLane="1i_0" departPos="10.10" departSpeed="0.00" departDelay="0.00" arrival="85.00" arrivalLane="3o_0" arrivalPos="492.80" arrivalSpeed="10.50" duration="84.00" routeLength="984.53" waitingTime="0.00" waitingCount="0" stopTime="0.00" timeLoss="11.12" rerouteNo="0" devices="tripinfo_WE_1" vType="truck" speedFactor="0.97" vaporized=""/>
    <tripinfo id="NS_9" depart="9.00" departLane="2i_0" departPos="10.10" departSpeed="0.00" departDelay="0.00" arrival="98.00" arrivalLane="1o_0" arrivalPos="492.80" arrivalSpeed="9.99" duration="89.00" routeLength="989.90" waitingTime="0.00" waitingCount="0" stopTime="0.00" timeLoss="11.49" rerouteNo="0" devices="tripinfo_NS_9" vType="truck" speedFactor="0.92" vaporized=""/>
    <tripinfo id="NS_12" depart="13.00" departLane="2i_0" departPos="4.10" departSpeed="0.00" departDelay="1.00" arrival="104.00" arrivalLane="1o_0" arrivalPos="492.80" arrivalSpeed="8.83" duration="91.00" routeLength="995.90" waitingTime="0.00" waitingCount="0" stopTime="0.00" timeLoss="11.16" rerouteNo="0" devices="tripinfo_NS_12" vType="car" speedFactor="0.89" vaporized=""/>
    <tripinfo id="WE_33" depart="33.00" departLane="1i_0" departPos="4.10" departSpeed="0.00" departDelay="0.00" arrival="105.00" arrivalLane="3o_0" arrivalPos="492.80" arrivalSpeed="11.83" duration="72.00" routeLength="990.53" waitingTime="0.00" waitingCount="0" stopTime="0.00" timeLoss="8.51" rerouteNo="0" devices="tripinfo_WE_33" vType="car" speedFactor="1.12" vaporized=""/>
    <tripinfo id="WE_25" depart="25.00" departLane="1i_0" departPos="4.10" departSpeed="0.00" departDelay="0.00" arrival="118.00" arrivalLane="4o_0" arrivalPos="492.80" arrivalSpeed="9.11" duration="93.00" routeLength="995.70" waitingTime="0.00" waitingCount="0" stopTime="0.00" timeLoss="10.20" rerouteNo="0" devices="tripinfo_WE_25" vType="car" speedFactor="0.86" vaporized=""/>
    <tripinfo id="NS_35" depart="35.00" departLane="2i_0" departPos="4.10" departSpeed="0.00" departDelay="0.00" arrival="121.00" arrivalLane="3o_0" arrivalPos="492.80" arrivalSpeed="10.20" duration="86.00" routeLength="995.70" waitingTime="0.00" waitingCount="0" stopTime="0.00" timeLoss="9.18" rerouteNo="0" devices="tripinfo_NS_35" vType="car" speedFactor="0.93" vaporized=""/>
    <tripinfo id="WE_51" depart="51.00" departLane="1i_0" departPos="4.10" departSpeed="0.00" departDelay="0.00" arrival="123.00" arrivalLane="3o_0" arrivalPos="492.80" arrivalSpeed="11.70" duration="72.00" routeLength="990.53" waitingTime="0.00" waitingCount="0" stopTime="0.00" timeLoss="10.30" rerouteNo="0" devices="tripinfo_WE_51" vType="car" speedFactor="1.16" vaporized=""/>
    <tripinfo id="WE_42" depart="42.00" departLane="1i_0" departPos="4.10" departSpeed="0.00" departDelay="0.00" arrival="131.00" arrivalLane="2o_0" arrivalPos="492.80" arrivalSpeed="9.39" duration="89.00" routeLength="995.90" waitingTime="0.00" waitingCount="0" stopTime="0.00" timeLoss="8.46" rerouteNo="0" devices="tripinfo_WE_42" vType="car" speedFactor="0.88" vaporized=""/>
    <tripinfo id="WE_54" depart="54.00" departLane="1i_0" departPos="4.10" departSpeed="0.00" departDelay="0.00" arrival="133.00" arrivalLane="2o_0" arrivalPos="492.80" arrivalSpeed="9.97" duration="79.00" routeLength="995.90" waitingTime="0.00" waitingCount="0" stopTime="0.00" timeLoss="8.77" rerouteNo="0" devices="tripinfo_WE_54" vType="car" speedFactor="1.01" vaporized=""/>
    <tripinfo id="NS_55" depart="55.00" departLane="2i_0" departPos="4.10" departSpeed="0.00" departDelay="0.00" arrival="136.00" arrivalLane="1o_0" arrivalPos="492.80" arrivalSpeed="10.35" duration="81.00" routeLength="995.90" waitingTime="0.00" waitingCount="0" stopTime="0.00" timeLoss="7.78" rerouteNo="0" devices="tripinfo_NS_55" vType="car" speedFactor="0.97" vaporized=""/>
    <tripinfo id="WE_57" depart="57.00" departLane="1i_0" departPos="4.10" departSpeed="0.00" departDelay="0.00" arrival="144.00" arrivalLane="3o_0" arrivalPos="492.80" arrivalSpeed="9.83" duration="87.00" routeLength="990.53" waitingTime="0.00" waitingCount="0" stopTime="0.00" timeLoss="7.82" rerouteNo="0" devices="tripinfo_WE_57" vType="car" speedFactor="0.89" vaporized=""/>
    <tripinfo id="WE_58" depart="59.00" departLane="1i_0" departPos="4.10" departSpeed="0.00" departDelay="1.00" arrival="154.00" arrivalLane="2o_0" arrivalPos="492.80" arrivalSpeed="8.22" duration="95.00" routeLength="995.90" waitingTime="0.00" waitingCount="0" stopTime="0.00" timeLoss="8.91" rerouteNo="0" devices="tripinfo_WE_58" vType="car" speedFactor="0.83" vaporized=""/>
    <tripinfo id="NS_71" depart="71.00" departLane="2i_0" departPos="4.10" departSpeed="0.00" departDelay="0.00" arrival="156.00" arrivalLane="3o_0" arrivalPos="492.80" arrivalSpeed="9.93" duration="85.00" routeLength="995.70" waitingTime="0.00" waitingCount="0" stopTime="0.00" timeLoss="10.17" rerouteNo="0" devices="tripinfo_NS_71" vType="car" speedFactor="0.95" vaporized=""/>
    <tripinfo id="NS_90" depart="90.00" departLane="2i_0" departPos="10.10" departSpeed="0.00" departDelay="0.00" arrival="172.00" arrivalLane="3o_0" arrivalPos="492.80" arrivalSpeed="12.02" duration="82.00" routeLength="989.70" waitingTime="0.00" waitingCount="0" stopTime="0.00" timeLoss="16.27" rerouteNo="0" devices="tripinfo_NS_90" vType="truck" speedFactor="1.09" vaporized=""/>
    <tripinfo id="WE_109" depart="109.00" departLane="1i_0" departPos="4.10" departSpeed="0.00" departDelay="0.00" arrival="178.00" arrivalLane="2o_0" arrivalPos="492.80" arrivalSpeed="12.40" duration="69.00" routeLength="995.90" waitingTime="0.00" waitingCount="0" stopTime="0.00" timeLoss="8.48" rerouteNo="0" devices="tripinfo_WE_109" vType="car" speedFactor="1.18" vaporized=""/>
    <tripinfo id="NS_101" depart="101.00" departLane="2i_0" departPos="4.10" departSpeed="0.00" departDelay="0.00" arrival="183.00" arrivalLane="3o_0" arrivalPos="492.80" arrivalSpeed="10.75" duration="82.00" routeLength="995.70" waitingTime="0.00" waitingCount="0" stopTime="0.00" timeLoss="10.34" rerouteNo="0" devices="tripinfo_NS_101" vType="car" speedFactor="0.99" vaporized=""/>
    <tripinfo id="NS_113" depart="113.00" departLane="2i_0" departPos="4.10" departSpeed="0.00" departDelay="0.00" arrival="185.00" arrivalLane="4o_0" arrivalPos="492.80" arrivalSpeed="11.45" duration="72.00" routeLength="990.53" waitingTime="0.00" waitingCount="0" stopTime="0.00" timeLoss="7.75" rerouteNo="0" devices="tripinfo_NS_113" vType="car" speedFactor="1.10" vaporized=""/>
    <tripinfo id="NS_103" depart="104.00" departLane="2i_0" departPos="4.10" departSpeed="0.00" departDelay="1.00" arrival="188.00" arrivalLane="3o_0" arrivalPos="492.80" arrivalSpeed="10.29" duration="84.00" routeLength="995.70" waitingTime="0.00" waitingCount="0" stopTime="0.00" timeLoss="14.12" rerouteNo="0" devices="tripinfo_NS_103" vType="car" speedFactor="1.02" vaporized=""/>
    <tripinfo id="NS_118" depart="118.00" departLane="2i_0" departPos="4.10" departSpeed="0.00" departDelay="0.00" arrival="195.00" arrivalLane="4o_0" arrivalPos="492.80" arrivalSpeed="10.73" duration="77.00" routeLength="990.53" waitingTime="0.00" waitingCount="0" stopTime="0.00" timeLoss="8.27" rerouteNo="0" devices="tripinfo_NS_118" vType="car" speedFactor="1.03" vaporized=""/>
    <tripinfo id="WE_119" depart="119.00" departLane="1i_0" departPos="4.10" departSpeed="0.00" departDelay="0.00" arrival="202.00" arrivalLane="2o_0" arrivalPos="492.80" arrivalSpeed="9.45" duration="83.00" routeLength="995.90" waitingTime="0.00" waitingCount="0" stopTime="0.00" timeLoss="8.60" rerouteNo="0" devices="tripinfo_WE_119" vType="car" speedFactor="0.96" vaporized=""/>
    <tripinfo id="NS_123" depart="123.00" departLane="2i_0" departPos="4.10" departSpeed="0.00" departDelay="0.00" arrival="202.00" arrivalLane="4o_0" arrivalPos="492.80" arrivalSpeed="10.81" duration="79.00" routeLength="990.53" waitingTime="0.00" waitingCount="0" stopTime="0.00" timeLoss="8.21" rerouteNo="0" devices="tripinfo_NS_123" vType="car" speedFactor="1.00" vaporized=""/>
    <tripinfo id="WE_122" depart="123.00" departLane="1i_0" departPos="10.10" departSpeed="0.00" departDelay="1.00" arrival="204.00" arrivalLane="3o_0" arrivalPos="492.80" arrivalSpeed="10.75" duration="81.00" routeLength="984.53" waitingTime="0.00" waitingCount="0" stopTime="0.00" timeLoss="12.28" rerouteNo="0" devices="tripinfo_WE_122" vType="truck" speedFactor="1.02" vaporized=""/>
    <tripinfo id="NS_140" depart="140.00" departLane="2i_0" departPos="4.10" departSpeed="0.00" departDelay="0.00" arrival="218.00" arrivalLane="1o_0" arrivalPos="492.80" arrivalSpeed="10.94" duration="78.00" routeLength="995.90" waitingTime="0.00" waitingCount="0" stopTime="0.00" timeLoss="8.23" rerouteNo="0" devices="tripinfo_NS_140" vType="car" speedFactor="1.02" vaporized=""/>
    <tripinfo id="NS_134" depart="134.00" departLane="2i_0" departPos="4.10" departSpeed="0.00" departDelay="0.00" arrival="225.00" arrivalLane="4o_0" arrivalPos="492.80" arrivalSpeed="8.66" duration="91.00" routeLength="990.53" waitingTime="0.00" waitingCount="0" stopTime="0.00" timeLoss="8.61" rerouteNo="0" devices="tripinfo_NS_134" vType="car" speedFactor="0.85" vaporized=""/>
    <tripinfo id="NS_154" depart="154.00" departLane="2i_0" departPos="4.10" departSpeed="0.00" departDelay="0.00" arrival="236.00" arrivalLane="4o_0" arrivalPos="492.80" arrivalSpeed="9.90" duration="82.00" routeLength="990.53" waitingTime="0.00" waitingCount="0" stopTime="0.00" timeLoss="8.97" rerouteNo="0" devices="tripinfo_NS_154" vType="car" speedFactor="0.97" vaporized=""/>
    <tripinfo id="NS_163" depart="163.00" departLane="2i_0" departPos="4.10" departSpeed="0.00" departDelay="0.00" arrival="246.00" arrivalLane="3o_0" arrivalPos="492.80" arrivalSpeed="10.90" duration="83.00" routeLength="995.70" waitingTime="0.00" waitingCount="0" stopTime="0.00" timeLoss="10.86" rerouteNo="0" devices="tripinfo_NS_163" vType="car" speedFactor="0.99" vaporized=""/>
    <tripinfo id="NS_169" depart="169.00" departLane="2i_0" departPos="4.10" departSpeed="0.00" departDelay="0.00" arrival="260.00" arrivalLane="3o_0" arrivalPos="492.80" arrivalSpeed="8.70" duration="91.00" routeLength="995.70" waitingTime="0.00" waitingCount="0" stopTime="0.00" timeLoss="10.45" rerouteNo="0" devices="tripinfo_NS_169" vType="car" speedFactor="0.88" vaporized=""/>
    <tripinfo id="NS_176" depart="178.00" departLane="2i_0" departPos="4.10" departSpeed="0.00" departDelay="2.00" arrival="263.00" arrivalLane="1o_0" arrivalPos="492.80" arrivalSpeed="9.60" duration="85.00" routeLength="995.90" waitingTime="0.00" waitingCount="0" stopTime="0.00" timeLoss="7.48" rerouteNo="0" devices="tripinfo_NS_176" vType="car" speedFactor="0.91" vaporized=""/>
    <tripinfo id="NS_187" depart="187.00" departLane="2i_0" departPos="4.10" departSpeed="0.00" departDelay="0.00" arrival="271.00" arrivalLane="3o_0" arrivalPos="492.80" arrivalSpeed="10.50" duration="84.00" routeLength="995.70" waitingTime="0.00" waitingCount="0" stopTime="0.00" timeLoss="10.59" rerouteNo="0" devices="tripinfo_NS_187" vType="car" speedFactor="0.97" vaporized=""/>
    <tripinfo id="NS_195" depart="195.00" departLane="2i_0" departPos="4.10" departSpeed="0.00" departDelay="0.00" arrival="276.00" arrivalLane="4o_0" arrivalPos="492.80" arrivalSpeed="10.56" duration="81.00" routeLength="990.53" waitingTime="0.00" waitingCount="0" stopTime="0.00" timeLoss="8.92" rerouteNo="0" devices="tripinfo_NS_195" vType="car" speedFactor="0.98" vaporized=""/>
    <tripinfo id="WE_143" depart="143.00" departLane="1i_0" departPos="4.10" departSpeed="0.00" departDelay="0.00" arrival="278.00" arrivalLane="2o_0" arrivalPos="492.80" arrivalSpeed="11.09" duration="135.00" routeLength="995.90" waitingTime="54.00" waitingCount="1" stopTime="0.00" timeLoss="70.15" rerouteNo="0" devices="tripinfo_WE_143" vType="car" speedFactor="1.10" vaporized=""/>
    <tripinfo id="WE_126" depart="128.00" departLane="1i_0" departPos="10.10" departSpeed="0.00" departDelay="2.00" arrival="284.00" arrivalLane="4o_0" arrivalPos="492.80" arrivalSpeed="9.91" duration="156.00" routeLength="989.70" waitingTime="58.00" waitingCount="1" stopTime="0.00" timeLoss="79.26" rerouteNo="0" devices="tripinfo_WE_126" vType="truck" speedFactor="0.93" vaporized=""/>
    <tripinfo id="WE_146" depart="146.00" departLane="1i_0" departPos="4.10" departSpeed="0.00" departDelay="0.00" arrival="286.00" arrivalLane="4o_0" arrivalPos="492.80" arrivalSpeed="10.00" duration="140.00" routeLength="995.70" waitingTime="51.00" waitingCount="1" stopTime="0.00" timeLoss="69.12" rerouteNo="0" devices="tripinfo_WE_146" vType="car" speedFactor="1.00" vaporized=""/>
    <tripinfo id="WE_152" depart="152.00" departLane="1i_0" departPos="4.10" departSpeed="0.00" departDelay="0.00" arrival="288.00" arrivalLane="4o_0" arrivalPos="492.80" arrivalSpeed="10.30" duration="136.00" routeLength="995.70" waitingTime="45.00" waitingCount="1" stopTime="0.00" timeLoss="66.25" rerouteNo="0" devices="tripinfo_WE_152" vType="car" speedFactor="1.02" vaporized=""/>
    <tripinfo id="WE_184" depart="184.00" departLane="1i_0" departPos="4.10" departSpeed="0.00" departDelay="0.00" arrival="290.00" arrivalLane="4o_0" arrivalPos="492.80" arrivalSpeed="10.68" duration="106.00" routeLength="995.70" waitingTime="15.00" waitingCount="1" stopTime="0.00" timeLoss="36.09" rerouteNo="0" devices="tripinfo_WE_184" vType="car" speedFactor="1.02" vaporized=""/>
    <tripinfo id="WE_196" depart="196.00" departLane="1i_0" departPos="4.10" departSpeed="0.00" departDelay="0.00" arrival="291.00" arrivalLane="4o_0" arrivalPos="492.80" arrivalSpeed="11.30" duration="95.00" routeLength="995.70" waitingTime="6.00" waitingCount="1" stopTime="0.00" timeLoss="26.61" rerouteNo="0" devices="tripinfo_WE_196" vType="car" speedFactor="1.03" vaporized=""/>
    <tripinfo id="WE_188" depart="188.00" departLane="1i_0" departPos="4.10" departSpeed="0.00" departDelay="0.00" arrival="293.00" arrivalLane="3o_0" arrivalPos="492.80" arrivalSpeed="10.28" duration="105.00" routeLength="990.53" waitingTime="13.00" waitingCount="1" stopTime="0.00" timeLoss="29.88" rerouteNo="0" devices="tripinfo_WE_188" vType="car" speedFactor="0.94" vaporized=""/>
    <tripinfo id="WE_211" depart="211.00" departLane="1i_0" departPos="4.10" departSpeed="0.00" departDelay="0.00" arrival="295.00" arrivalLane="3o_0" arrivalPos="492.80" arrivalSpeed="11.40" duration="84.00" routeLength="990.53" waitingTime="0.00" waitingCount="0" stopTime="0.00" timeLoss="18.74" rerouteNo="0" devices="tripinfo_WE_211" vType="car" speedFactor="1.09" vaporized=""/>
    <tripinfo id="NS_232" depart="232.00" departLane="2i_0" departPos="4.10" departSpeed="0.00" departDelay="0.00" arrival="304.00" arrivalLane="3o_0" arrivalPos="492.80" arrivalSpeed="12.40" duration="72.00" routeLength="995.70" waitingTime="0.00" waitingCount="0" stopTime="0.00" timeLoss="9.62" rerouteNo="0" devices="tripinfo_NS_232" vType="car" speedFactor="1.15" vaporized=""/>
    <tripinfo id="NS_236" depart="236.00" departLane="2i_0" departPos="4.10" departSpeed="0.00" departDelay="0.00" arrival="317.00" arrivalLane="4o_0" arrivalPos="492.80" arrivalSpeed="10.60" duration="81.00" routeLength="990.53" waitingTime="0.00" waitingCount="0" stopTime="0.00" timeLoss="7.97" rerouteNo="0" devices="tripinfo_NS_236" vType="car" speedFactor="0.98" vaporized=""/>
    <tripinfo id="WE_245" depart="245.00" departLane="1i_0" departPos="4.10" departSpeed="0.00" departDelay="0.00" arrival="326.00" arrivalLane="4o_0" arrivalPos="492.80" arrivalSpeed="10.00" duration="81.00" routeLength="995.70" waitingTime="0.00" waitingCount="0" stopTime="0.00" timeLoss="10.37" rerouteNo="0" devices="tripinfo_WE_245" vType="car" speedFactor="1.01" vaporized=""/>
    <tripinfo id="WE_248" depart="248.00" departLane="1i_0" departPos="4.10" departSpeed="0.00" departDelay="0.00" arrival="327.00" arrivalLane="2o_0" arrivalPos="492.80" arrivalSpeed="10.57" duration="79.00" routeLength="995.90" waitingTime="0.00" waitingCount="0" stopTime="0.00" timeLoss="9.35" rerouteNo="0" devices="tripinfo_WE_248" vType="car" speedFactor="1.02" vaporized=""/>
    <tripinfo id="NS_248" depart="248.00" departLane="2i_0" departPos="4.10" departSpeed="0.00" departDelay="0.00" arrival="337.00" arrivalLane="3o_0" arrivalPos="492.80" arrivalSpeed="8.76" duration="89.00" routeLength="995.70" waitingTime="0.00" waitingCount="0" stopTime="0.00" timeLoss="9.66" rerouteNo="0" devices="tripinfo_NS_248" vType="car" speedFactor="0.89" vaporized=""/>
    <tripinfo id="EW_1" depart="1.00" departLane="4i_0" departPos="4.10" departSpeed="0.00" departDelay="0.00" arrival="345.00" arrivalLane="2o_0" arrivalPos="492.80" arrivalSpeed="10.97" duration="344.00" routeLength="981.50" waitingTime="301.00" waitingCount="1" stopTime="0.00" timeLoss="308.83" rerouteNo="0" devices="tripinfo_EW_1" vType="car" speedFactor="1.01" vaporized=""/>
    <tripinfo id="NS_250" depart="251.00" departLane="2i_0" departPos="4.10" departSpeed="0.00" departDelay="1.00" arrival="345.00" arrivalLane="4o_0" arrivalPos="492.80" arrivalSpeed="8.22" duration="94.00" routeLength="990.53" waitingTime="0.00" waitingCount="0" stopTime="0.00" timeLoss="9.74" rerouteNo="0" devices="tripinfo_NS_250" vType="car" speedFactor="0.83" vaporized=""/>
    <tripinfo id="NS_254" depart="254.00" departLane="2i_0" departPos="4.10" departSpeed="0.00" departDelay="0.00" arrival="347.00" arrivalLane="4o_0" arrivalPos="492.80" arrivalSpeed="9.67" duration="93.00" routeLength="990.53" waitingTime="0.00" waitingCount="0" stopTime="0.00" timeLoss="16.09" rerouteNo="0" devices="tripinfo_NS_254" vType="car" speedFactor="0.92" vaporized=""/>
    <tripinfo id="WE_274" depart="274.00" departLane="1i_0" departPos="4.10" departSpeed="0.00" departDelay="0.00" arrival="347.00" arrivalLane="2o_0" arrivalPos="492.80" arrivalSpeed="11.05" duration="73.00" routeLength="995.90" waitingTime="0.00" waitingCount="0" stopTime="0.00" timeLoss="7.81" rerouteNo="0" devices="tripinfo_WE_274" vType="car" speedFactor="1.10" vaporized=""/>
    <tripinfo id="WE_258" depart="258.00" departLane="1i_0" departPos="4.10" departSpeed="0.00" departDelay="0.00" arrival="349.00" arrivalLane="4o_0" arrivalPos="492.80" arrivalSpeed="10.67" duration="91.00" routeLength="995.70" waitingTime="0.00" waitingCount="0" stopTime="0.00" timeLoss="20.52" rerouteNo="0" devices="tripinfo_WE_258" vType="car" speedFactor="1.01" vaporized=""/>
    <tripinfo id="NS_274" depart="274.00" departLane="2i_0" departPos="4.10" departSpeed="0.00" departDelay="0.00" arrival="353.00" arrivalLane="1o_0" arrivalPos="492.80" arrivalSpeed="11.59" duration="79.00" routeLength="995.90" waitingTime="0.00" waitingCount="0" stopTime="0.00" timeLoss="11.92" rerouteNo="0" devices="tripinfo_NS_274" vType="car" speedFactor="1.06" vaporized=""/>
    <tripinfo id="NS_271" depart="271.00" departLane="2i_0" departPos="4.10" departSpeed="0.00" departDelay="0.00" arrival="359.00" arrivalLane="3o_0" arrivalPos="492.80" arrivalSpeed="9.74" duration="88.00" routeLength="995.70" waitingTime="0.00" waitingCount="0" stopTime="0.00" timeLoss="9.98" rerouteNo="0" devices="tripinfo_NS_271" vType="car" speedFactor="0.91" vaporized=""/>
    <tripinfo id="NS_295" depart="295.00" departLane="2i_0" departPos="4.10" departSpeed="0.00" departDelay="0.00" arrival="373.00" arrivalLane="4o_0" arrivalPos="492.80" arrivalSpeed="10.44" duration="78.00" routeLength="990.53" waitingTime="0.00" waitingCount="0" stopTime="0.00" timeLoss="8.55" rerouteNo="0" devices="tripinfo_NS_295" vType="car" speedFactor="1.01" vaporized=""/>
    <tripinfo id="NS_298" depart="299.00" departLane="2i_0" departPos="10.10" departSpeed="0.00" departDelay="1.00" arrival="379.00" arrivalLane="4o_0" arrivalPos="492.80" arrivalSpeed="11.25" duration="80.00" routeLength="984.53" waitingTime="0.00" waitingCount="0" stopTime="0.00" timeLoss="11.20" rerouteNo="0" devices="tripinfo_NS_298" vType="truck" speedFactor="1.02" vaporized=""/>
    <tripinfo id="WE_305" depart="305.00" departLane="1i_0" departPos="4.10" departSpeed="0.00" departDelay="0.00" arrival="380.00" arrivalLane="3o_0" arrivalPos="492.80" arrivalSpeed="11.10" duration="75.00" routeLength="990.53" waitingTime="0.00" waitingCount="0" stopTime="0.00" timeLoss="8.42" rerouteNo="0" devices="tripinfo_WE_305" vType="car" speedFactor="1.06" vaporized=""/>
    <tripinfo id="EW_10" depart="10.00" departLane="4i_0" departPos="4.10" departSpeed="0.00" departDelay="0.00" arrival="387.00" arrivalLane="3o_0" arrivalPos="492.80" arrivalSpeed="10.58" duration="377.00" routeLength="995.90" waitingTime="292.00" waitingCount="2" stopTime="0.00" timeLoss="308.96" rerouteNo="0" devices="tripinfo_EW_10" vType="car" speedFactor="1.05" vaporized=""/>
    <tripinfo id="NS_307" depart="307.00" departLane="2i_0" departPos="4.10" departSpeed="0.00" departDelay="0.00" arrival="389.00" arrivalLane="4o_0" arrivalPos="492.80" arrivalSpeed="9.62" duration="82.00" routeLength="990.53" waitingTime="0.00" waitingCount="0" stopTime="0.00" timeLoss="8.12" rerouteNo="0" devices="tripinfo_NS_307" vType="car" speedFactor="0.96" vaporized=""/>
    <tripinfo id="EW_22" depart="22.00" departLane="4i_0" departPos="4.10" departSpeed="0.00" departDelay="0.00" arrival="394.00" arrivalLane="1o_0" arrivalPos="492.80" arrivalSpeed="9.22" duration="372.00" routeLength="990.53" waitingTime="279.00" waitingCount="1" stopTime="0.00" timeLoss="296.69" rerouteNo="0" devices="tripinfo_EW_22" vType="car" speedFactor="0.94" vaporized=""/>
    <tripinfo id="EW_28" depart="28.00" departLane="4i_0" departPos="4.10" departSpeed="0.00" departDelay="0.00" arrival="394.00" arrivalLane="3o_0" arrivalPos="492.80" arrivalSpeed="11.13" duration="366.00" routeLength="995.90" waitingTime="277.00" waitingCount="1" stopTime="0.00" timeLoss="296.48" rerouteNo="0" devices="tripinfo_EW_28" vType="car" speedFactor="1.03" vaporized=""/>
    <tripinfo id="EW_25" depart="25.00" departLane="4i_0" departPos="4.10" departSpeed="0.00" departDelay="0.00" arrival="396.00" arrivalLane="1o_0" arrivalPos="492.80" arrivalSpeed="11.33" duration="371.00" routeLength="990.53" waitingTime="278.00" waitingCount="1" stopTime="0.00" timeLoss="305.82" rerouteNo="0" devices="tripinfo_EW_25" vType="car" speedFactor="1.09" vaporized=""/>
    <tripinfo id="EW_46" depart="46.00" departLane="4i_0" departPos="4.10" departSpeed="0.00" departDelay="0.00" arrival="400.00" arrivalLane="2o_0" arrivalPos="492.80" arrivalSpeed="9.67" duration="354.00" routeLength="995.70" waitingTime="259.00" waitingCount="1" stopTime="0.00" timeLoss="278.57" rerouteNo="0" devices="tripinfo_EW_46" vType="car" speedFactor="0.94" vaporized=""/>
    <tripinfo id="EW_48" depart="49.00" departLane="4i_0" departPos="4.10" departSpeed="0.00" departDelay="1.00" arrival="404.00" arrivalLane="2o_0" arrivalPos="492.80" arrivalSpeed="9.69" duration="355.00" routeLength="995.70" waitingTime="256.00" waitingCount="1" stopTime="0.00" timeLoss="279.00" rerouteNo="0" devices="tripinfo_EW_48" vType="car" speedFactor="0.94" vaporized=""/>
    <tripinfo id="EW_74" depart="74.00" departLane="4i_0" departPos="10.10" departSpeed="0.00" departDelay="0.00" arrival="405.00" arrivalLane="3o_0" arrivalPos="492.80" arrivalSpeed="10.58" duration="331.00" routeLength="989.90" waitingTime="229.00" waitingCount="1" stopTime="0.00" timeLoss="257.87" rerouteNo="0" devices="tripinfo_EW_74" vType="truck" speedFactor="0.97" vaporized=""/>
    <tripinfo id="EW_92" depart="92.00" departLane="4i_0" departPos="4.10" departSpeed="0.00" departDelay="0.00" arrival="406.00" arrivalLane="2o_0" arrivalPos="492.80" arrivalSpeed="12.80" duration="314.00" routeLength="995.70" waitingTime="221.00" waitingCount="1" stopTime="0.00" timeLoss="251.90" rerouteNo="0" devices="tripinfo_EW_92" vType="car" speedFactor="1.15" vaporized=""/>
    <tripinfo id="EW_65" depart="65.00" departLane="4i_0" departPos="4.10" departSpeed="0.00" departDelay="0.00" arrival="408.00" arrivalLane="1o_0" arrivalPos="492.80" arrivalSpeed="9.33" duration="343.00" routeLength="990.53" waitingTime="242.00" waitingCount="1" stopTime="0.00" timeLoss="262.17" rerouteNo="0" devices="tripinfo_EW_65" vType="car" speedFactor="0.87" vaporized=""/>
    <tripinfo id="EW_97" depart="97.00" departLane="4i_0" departPos="4.10" departSpeed="0.00" departDelay="0.00" arrival="410.00" arrivalLane="3o_0" arrivalPos="492.80" arrivalSpeed="10.94" duration="313.00" routeLength="995.90" waitingTime="216.00" waitingCount="1" stopTime="0.00" timeLoss="242.05" rerouteNo="0" devices="tripinfo_EW_97" vType="car" speedFactor="1.01" vaporized=""/>
    <tripinfo id="EW_98" depart="99.00" departLane="4i_0" departPos="4.10" departSpeed="0.00" departDelay="1.00" arrival="411.00" arrivalLane="3o_0" arrivalPos="492.80" arrivalSpeed="12.36" duration="312.00" routeLength="995.90" waitingTime="216.00" waitingCount="1" stopTime="0.00" timeLoss="251.60" rerouteNo="0" devices="tripinfo_EW_98" vType="car" speedFactor="1.17" vaporized=""/>
    <tripinfo id="EW_121" depart="121.00" departLane="4i_0" departPos="4.10" departSpeed="0.00" departDelay="0.00" arrival="413.00" arrivalLane="1o_0" arrivalPos="492.80" arrivalSpeed="10.92" duration="292.00" routeLength="990.53" waitingTime="198.00" waitingCount="1" stopTime="0.00" timeLoss="227.15" rerouteNo="0" devices="tripinfo_EW_121" vType="car" speedFactor="1.09" vaporized=""/>
    <tripinfo id="EW_105" depart="105.00" departLane="4i_0" departPos="4.10" departSpeed="0.00" departDelay="0.00" arrival="415.00" arrivalLane="2o_0" arrivalPos="492.80" arrivalSpeed="9.80" duration="310.00" routeLength="995.70" waitingTime="212.00" waitingCount="1" stopTime="0.00" timeLoss="237.38" rerouteNo="0" devices="tripinfo_EW_105" vType="car" speedFactor="0.97" vaporized=""/>
    <tripinfo id="EW_138" depart="138.00" departLane="4i_0" departPos="4.10" departSpeed="0.00" departDelay="0.00" arrival="415.00" arrivalLane="1o_0" arrivalPos="492.80" arrivalSpeed="12.12" duration="277.00" routeLength="990.53" waitingTime="185.00" waitingCount="1" stopTime="0.00" timeLoss="216.11" rerouteNo="0" devices="tripinfo_EW_138" vType="car" speedFactor="1.17" vaporized=""/>
    <tripinfo id="EW_117" depart="118.00" departLane="4i_0" departPos="4.10" departSpeed="0.00" departDelay="1.00" arrival="421.00" arrivalLane="2o_0" arrivalPos="492.80" arrivalSpeed="9.84" duration="303.00" routeLength="995.70" waitingTime="198.00" waitingCount="1" stopTime="0.00" timeLoss="224.58" rerouteNo="0" devices="tripinfo_EW_117" vType="car" speedFactor="0.90" vaporized=""/>
    <tripinfo id="EW_147" depart="147.00" departLane="4i_0" departPos="4.10" departSpeed="0.00" departDelay="0.00" arrival="424.00" arrivalLane="2o_0" arrivalPos="492.80" arrivalSpeed="10.63" duration="277.00" routeLength="995.70" waitingTime="177.00" waitingCount="1" stopTime="0.00" timeLoss="206.08" rerouteNo="0" devices="tripinfo_EW_147" vType="car" speedFactor="1.00" vaporized=""/>
    <tripinfo id="EW_125" depart="125.00" departLane="4i_0" departPos="4.10" departSpeed="0.00" departDelay="0.00" arrival="425.00" arrivalLane="3o_0" arrivalPos="492.80" arrivalSpeed="8.99" duration="300.00" routeLength="995.90" waitingTime="194.00" waitingCount="1" stopTime="0.00" timeLoss="221.30" rerouteNo="0" devices="tripinfo_EW_125" vType="car" speedFactor="0.90" vaporized=""/>
    <tripinfo id="EW_157" depart="157.00" departLane="4i_0" departPos="4.10" departSpeed="0.00" departDelay="0.00" arrival="426.00" arrivalLane="2o_0" arrivalPos="492.80" arrivalSpeed="11.07" duration="269.00" routeLength="995.70" waitingTime="172.00" waitingCount="1" stopTime="0.00" timeLoss="203.42" rerouteNo="0" devices="tripinfo_EW_157" vType="car" speedFactor="1.08" vaporized=""/>
    <tripinfo id="EW_161" depart="161.00" departLane="4i_0" departPos="10.10" departSpeed="0.00" departDelay="0.00" arrival="429.00" arrivalLane="3o_0" arrivalPos="492.80" arrivalSpeed="10.74" duration="268.00" routeLength="989.90" waitingTime="161.00" waitingCount="1" stopTime="0.00" timeLoss="197.52" rerouteNo="0" devices="tripinfo_EW_161" vType="truck" speedFactor="1.01" vaporized=""/>
    <tripinfo id="EW_148" depart="149.00" departLane="4i_0" departPos="4.10" departSpeed="0.00" departDelay="1.00" arrival="431.00" arrivalLane="1o_0" arrivalPos="492.80" arrivalSpeed="8.79" duration="282.00" routeLength="990.53" waitingTime="174.00" waitingCount="1" stopTime="0.00" timeLoss="203.03" rerouteNo="0" devices="tripinfo_EW_148" vType="car" speedFactor="0.90" vaporized=""/>