<?xml version="1.0" encoding="UTF-8"?>

<!-- generated on 2024-05-05 23:11:35 by Eclipse SUMO sumo Version 1.19.0
<configuration xmlns:xsi="http://www.w3.org/2001/XMLSchema-instance" xsi:noNamespaceSchemaLocation="http://sumo.dlr.de/xsd/sumoConfiguration.xsd">

    <input>
        <net-file value="twoone.net.xml"/>
        <route-files value="route_gen.rou.xml"/>
    </input>

    <output>
        <tripinfo-output value="tripinfo_epi484.xml"/>
    </output>

    <report>
        <no-warnings value="true"/>
    </report>

    <traci_server>
        <remote-port value="45585"/>
    </traci_server>

</configuration>
-->

<tripinfos xmlns:xsi="http://www.w3.org/2001/XMLSchema-instance" xsi:noNamespaceSchemaLocation="http://sumo.dlr.de/xsd/tripinfo_file.xsd">
    <tripinfo id="SN_3" depart="3.00" departLane="3i_0" departPos="4.10" departSpeed="0.00" departDelay="0.00" arrival="86.00" arrivalLane="4o_0" arrivalPos="492.80" arrivalSpeed="10.62" duration="83.00" routeLength="995.90" waitingTime="1.00" waitingCount="1" stopTime="0.00" timeLoss="15.89" rerouteNo="0" devices="tripinfo_SN_3" vType="car" speedFactor="1.06" vaporized=""/>
    <tripinfo id="NS_7" depart="7.00" departLane="2i_0" departPos="4.10" departSpeed="0.00" departDelay="0.00" arrival="86.00" arrivalLane="1o_0" arrivalPos="492.80" arrivalSpeed="10.98" duration="79.00" routeLength="995.90" waitingTime="0.00" waitingCount="0" stopTime="0.00" timeLoss="8.24" rerouteNo="0" devices="tripinfo_NS_7" vType="car" speedFactor="1.01" vaporized=""/>
    <tripinfo id="NS_8" depart="10.00" departLane="2i_0" departPos="4.10" departSpeed="0.00" departDelay="2.00" arrival="88.00" arrivalLane="3o_0" arrivalPos="492.80" arrivalSpeed="11.37" duration="78.00" routeLength="995.70" waitingTime="0.00" waitingCount="0" stopTime="0.00" timeLoss="9.23" rerouteNo="0" devices="tripinfo_NS_8" vType="car" speedFactor="1.03" vaporized=""/>
    <tripinfo id="WE_13" depart="13.00" departLane="1i_0" departPos="4.10" departSpeed="0.00" departDelay="0.00" arrival="96.00" arrivalLane="3o_0" arrivalPos="492.80" arrivalSpeed="10.77" duration="83.00" routeLength="990.53" waitingTime="0.00" waitingCount="0" stopTime="0.00" timeLoss="15.71" rerouteNo="0" devices="tripinfo_WE_13" vType="car" speedFactor="1.05" vaporized=""/>
    <tripinfo id="WE_9" depart="9.00" departLane="1i_0" departPos="10.10" departSpeed="0.00" departDelay="0.00" arrival="100.00" arrivalLane="4o_0" arrivalPos="492.80" arrivalSpeed="10.00" duration="91.00" routeLength="989.70" waitingTime="0.00" waitingCount="0" stopTime="0.00" timeLoss="13.67" rerouteNo="0" devices="tripinfo_WE_9" vType="truck" speedFactor="0.92" vaporized=""/>
    <tripinfo id="WE_16" depart="17.00" departLane="1i_0" departPos="10.10" departSpeed="0.00" departDelay="1.00" arrival="107.00" arrivalLane="4o_0" arrivalPos="492.80" arrivalSpeed="10.09" duration="90.00" routeLength="989.70" waitingTime="0.00" waitingCount="0" stopTime="0.00" timeLoss="15.49" rerouteNo="0" devices="tripinfo_WE_16" vType="truck" speedFactor="0.94" vaporized=""/>
    <tripinfo id="NS_36" depart="36.00" departLane="2i_0" departPos="4.10" departSpeed="0.00" departDelay="0.00" arrival="109.00" arrivalLane="4o_0" arrivalPos="492.80" arrivalSpeed="11.65" duration="73.00" routeLength="990.53" waitingTime="0.00" waitingCount="0" stopTime="0.00" timeLoss="10.35" rerouteNo="0" devices="tripinfo_NS_36" vType="car" speedFactor="1.12" vaporized=""/>
    <tripinfo id="WE_17" depart="21.00" departLane="1i_0" departPos="4.10" departSpeed="0.00" departDelay="4.00" arrival="111.00" arrivalLane="2o_0" arrivalPos="492.80" arrivalSpeed="9.91" duration="90.00" routeLength="995.90" waitingTime="0.00" waitingCount="0" stopTime="0.00" timeLoss="14.52" rerouteNo="0" devices="tripinfo_WE_17" vType="car" speedFactor="0.94" vaporized=""/>
    <tripinfo id="WE_25" depart="25.00" departLane="1i_0" departPos="4.10" departSpeed="0.00" departDelay="0.00" arrival="114.00" arrivalLane="4o_0" arrivalPos="492.80" arrivalSpeed="10.88" duration="89.00" routeLength="995.70" waitingTime="0.00" waitingCount="0" stopTime="0.00" timeLoss="21.15" rerouteNo="0" devices="tripinfo_WE_25" vType="car" speedFactor="1.05" vaporized=""/>
    <tripinfo id="SN_7" depart="7.00" departLane="3i_0" departPos="4.10" departSpeed="0.00" departDelay="0.00" arrival="127.00" arrivalLane="1o_0" arrivalPos="492.80" arrivalSpeed="11.63" duration="120.00" routeLength="995.70" waitingTime="36.00" waitingCount="2" stopTime="0.00" timeLoss="54.25" rerouteNo="0" devices="tripinfo_SN_7" vType="car" speedFactor="1.08" vaporized=""/>
    <tripinfo id="EW_6" depart="6.00" departLane="4i_0" departPos="4.10" departSpeed="0.00" departDelay="0.00" arrival="129.00" arrivalLane="3o_0" arrivalPos="492.80" arrivalSpeed="9.83" duration="123.00" routeLength="995.90" waitingTime="36.00" waitingCount="1" stopTime="0.00" timeLoss="47.74" rerouteNo="0" devices="tripinfo_EW_6" vType="car" speedFactor="0.94" vaporized=""/>
    <tripinfo id="NS_47" depart="47.00" departLane="2i_0" departPos="4.10" departSpeed="0.00" departDelay="0.00" arrival="136.00" arrivalLane="1o_0" arrivalPos="492.80" arrivalSpeed="9.00" duration="89.00" routeLength="995.90" waitingTime="0.00" waitingCount="0" stopTime="0.00" timeLoss="12.31" rerouteNo="0" devices="tripinfo_NS_47" vType="car" speedFactor="0.93" vaporized=""/>
    <tripinfo id="EW_18" depart="18.00" departLane="4i_0" departPos="4.10" departSpeed="0.00" departDelay="0.00" arrival="145.00" arrivalLane="1o_0" arrivalPos="492.80" arrivalSpeed="9.27" duration="127.00" routeLength="990.53" waitingTime="29.00" waitingCount="2" stopTime="0.00" timeLoss="44.26" rerouteNo="0" devices="tripinfo_EW_18" vType="car" speedFactor="0.86" vaporized=""/>
    <tripinfo id="SN_22" depart="22.00" departLane="3i_0" departPos="4.10" departSpeed="0.00" departDelay="0.00" arrival="146.00" arrivalLane="1o_0" arrivalPos="492.80" arrivalSpeed="10.92" duration="124.00" routeLength="995.70" waitingTime="25.00" waitingCount="3" stopTime="0.00" timeLoss="55.20" rerouteNo="0" devices="tripinfo_SN_22" vType="car" speedFactor="1.03" vaporized=""/>
    <tripinfo id="NS_63" depart="63.00" departLane="2i_0" departPos="4.10" departSpeed="0.00" departDelay="0.00" arrival="146.00" arrivalLane="4o_0" arrivalPos="492.80" arrivalSpeed="9.82" duration="83.00" routeLength="990.53" waitingTime="0.00" waitingCount="0" stopTime="0.00" timeLoss="7.82" rerouteNo="0" devices="tripinfo_NS_63" vType="car" speedFactor="0.94" vaporized=""/>
    <tripinfo id="NS_69" depart="69.00" departLane="2i_0" departPos="4.10" departSpeed="0.00" departDelay="0.00" arrival="147.00" arrivalLane="4o_0" arrivalPos="492.80" arrivalSpeed="12.66" duration="78.00" routeLength="990.53" waitingTime="1.00" waitingCount="1" stopTime="0.00" timeLoss="17.24" rerouteNo="0" devices="tripinfo_NS_69" vType="car" speedFactor="1.16" vaporized=""/>
    <tripinfo id="EW_20" depart="20.00" departLane="4i_0" departPos="4.10" departSpeed="0.00" departDelay="0.00" arrival="148.00" arrivalLane="1o_0" arrivalPos="492.80" arrivalSpeed="11.60" duration="128.00" routeLength="990.53" waitingTime="32.00" waitingCount="3" stopTime="0.00" timeLoss="63.17" rerouteNo="0" devices="tripinfo_EW_20" vType="car" speedFactor="1.09" vaporized=""/>
    <tripinfo id="NS_71" depart="72.00" departLane="2i_0" departPos="4.10" departSpeed="0.00" departDelay="1.00" arrival="150.00" arrivalLane="4o_0" arrivalPos="492.80" arrivalSpeed="10.98" duration="78.00" routeLength="990.53" waitingTime="0.00" waitingCount="0" stopTime="0.00" timeLoss="8.14" rerouteNo="0" devices="tripinfo_NS_71" vType="car" speedFactor="1.01" vaporized=""/>
    <tripinfo id="SN_40" depart="40.00" departLane="3i_0" departPos="4.10" departSpeed="0.00" departDelay="0.00" arrival="151.00" arrivalLane="1o_0" arrivalPos="492.80" arrivalSpeed="10.40" duration="111.00" routeLength="995.70" waitingTime="13.00" waitingCount="3" stopTime="0.00" timeLoss="39.12" rerouteNo="0" devices="tripinfo_SN_40" vType="car" speedFactor="0.99" vaporized=""/>
    <tripinfo id="WE_67" depart="67.00" departLane="1i_0" departPos="4.10" departSpeed="0.00" departDelay="0.00" arrival="157.00" arrivalLane="4o_0" arrivalPos="492.80" arrivalSpeed="9.84" duration="90.00" routeLength="995.70" waitingTime="1.00" waitingCount="1" stopTime="0.00" timeLoss="13.99" rerouteNo="0" devices="tripinfo_WE_67" vType="car" speedFactor="0.94" vaporized=""/>
    <tripinfo id="NS_72" depart="74.00" departLane="2i_0" departPos="4.10" departSpeed="0.00" departDelay="2.00" arrival="159.00" arrivalLane="4o_0" arrivalPos="492.80" arrivalSpeed="9.55" duration="85.00" routeLength="990.53" waitingTime="0.00" waitingCount="0" stopTime="0.00" timeLoss="12.17" rerouteNo="0" devices="tripinfo_NS_72" vType="car" speedFactor="0.97" vaporized=""/>
    <tripinfo id="SN_60" depart="60.00" departLane="3i_0" departPos="4.10" departSpeed="0.00" departDelay="0.00" arrival="160.00" arrivalLane="2o_0" arrivalPos="492.80" arrivalSpeed="9.26" duration="100.00" routeLength="990.53" waitingTime="3.00" waitingCount="2" stopTime="0.00" timeLoss="19.95" rerouteNo="0" devices="tripinfo_SN_60" vType="car" speedFactor="0.88" vaporized=""/>
    <tripinfo id="WE_75" depart="75.00" departLane="1i_0" departPos="4.10" departSpeed="0.00" departDelay="0.00" arrival="165.00" arrivalLane="4o_0" arrivalPos="492.80" arrivalSpeed="9.44" duration="90.00" routeLength="995.70" waitingTime="0.00" waitingCount="0" stopTime="0.00" timeLoss="10.04" rerouteNo="0" devices="tripinfo_WE_75" vType="car" speedFactor="0.89" vaporized=""/>
    <tripinfo id="SN_88" depart="88.00" departLane="3i_0" departPos="4.10" departSpeed="0.00" departDelay="0.00" arrival="165.00" arrivalLane="2o_0" arrivalPos="492.80" arrivalSpeed="12.03" duration="77.00" routeLength="990.53" waitingTime="1.00" waitingCount="1" stopTime="0.00" timeLoss="14.61" rerouteNo="0" devices="tripinfo_SN_88" vType="car" speedFactor="1.13" vaporized=""/>
    <tripinfo id="SN_69" depart="69.00" departLane="3i_0" departPos="4.10" departSpeed="0.00" departDelay="0.00" arrival="167.00" arrivalLane="4o_0" arrivalPos="492.80" arrivalSpeed="10.73" duration="98.00" routeLength="995.90" waitingTime="3.00" waitingCount="2" stopTime="0.00" timeLoss="27.86" rerouteNo="0" devices="tripinfo_SN_69" vType="car" speedFactor="1.02" vaporized=""/>
    <tripinfo id="NS_92" depart="93.00" departLane="2i_0" departPos="4.10" departSpeed="0.00" departDelay="1.00" arrival="170.00" arrivalLane="1o_0" arrivalPos="492.80" arrivalSpeed="12.17" duration="77.00" routeLength="995.90" waitingTime="1.00" waitingCount="1" stopTime="0.00" timeLoss="15.85" rerouteNo="0" devices="tripinfo_NS_92" vType="car" speedFactor="1.15" vaporized=""/>
    <tripinfo id="WE_78" depart="78.00" departLane="1i_0" departPos="4.10" departSpeed="0.00" departDelay="0.00" arrival="172.00" arrivalLane="3o_0" arrivalPos="492.80" arrivalSpeed="9.03" duration="94.00" routeLength="990.53" waitingTime="0.00" waitingCount="0" stopTime="0.00" timeLoss="8.67" rerouteNo="0" devices="tripinfo_WE_78" vType="car" speedFactor="0.83" vaporized=""/>
    <tripinfo id="NS_91" depart="91.00" departLane="2i_0" departPos="4.10" departSpeed="0.00" departDelay="0.00" arrival="174.00" arrivalLane="3o_0" arrivalPos="492.80" arrivalSpeed="12.49" duration="83.00" routeLength="995.70" waitingTime="0.00" waitingCount="0" stopTime="0.00" timeLoss="22.56" rerouteNo="0" devices="tripinfo_NS_91" vType="car" speedFactor="1.18" vaporized=""/>
    <tripinfo id="EW_87" depart="87.00" departLane="4i_0" departPos="4.10" departSpeed="0.00" departDelay="0.00" arrival="177.00" arrivalLane="3o_0" arrivalPos="492.80" arrivalSpeed="9.67" duration="90.00" routeLength="995.90" waitingTime="2.00" waitingCount="1" stopTime="0.00" timeLoss="14.93" rerouteNo="0" devices="tripinfo_EW_87" vType="car" speedFactor="0.95" vaporized=""/>
    <tripinfo id="WE_79" depart="80.00" departLane="1i_0" departPos="4.10" departSpeed="0.00" departDelay="1.00" arrival="178.00" arrivalLane="4o_0" arrivalPos="492.80" arrivalSpeed="9.59" duration="98.00" routeLength="995.70" waitingTime="3.00" waitingCount="1" stopTime="0.00" timeLoss="16.87" rerouteNo="0" devices="tripinfo_WE_79" vType="car" speedFactor="0.87" vaporized=""/>
    <tripinfo id="WE_94" depart="94.00" departLane="1i_0" departPos="4.10" departSpeed="0.00" departDelay="0.00" arrival="183.00" arrivalLane="3o_0" arrivalPos="492.80" arrivalSpeed="10.94" duration="89.00" routeLength="990.53" waitingTime="2.00" waitingCount="1" stopTime="0.00" timeLoss="18.38" rerouteNo="0" devices="tripinfo_WE_94" vType="car" speedFactor="1.01" vaporized=""/>
    <tripinfo id="WE_85" depart="86.00" departLane="1i_0" departPos="4.10" departSpeed="0.00" departDelay="1.00" arrival="185.00" arrivalLane="4o_0" arrivalPos="492.80" arrivalSpeed="9.66" duration="99.00" routeLength="995.70" waitingTime="4.00" waitingCount="1" stopTime="0.00" timeLoss="21.57" rerouteNo="0" devices="tripinfo_WE_85" vType="car" speedFactor="0.92" vaporized=""/>
    <tripinfo id="SN_90" depart="91.00" departLane="3i_0" departPos="4.10" departSpeed="0.00" departDelay="1.00" arrival="188.00" arrivalLane="4o_0" arrivalPos="492.80" arrivalSpeed="9.77" duration="97.00" routeLength="995.90" waitingTime="8.00" waitingCount="1" stopTime="0.00" timeLoss="20.93" rerouteNo="0" devices="tripinfo_SN_90" vType="car" speedFactor="0.93" vaporized=""/>
    <tripinfo id="NS_102" depart="102.00" departLane="2i_0" departPos="4.10" departSpeed="0.00" departDelay="0.00" arrival="188.00" arrivalLane="1o_0" arrivalPos="492.80" arrivalSpeed="10.42" duration="86.00" routeLength="995.90" waitingTime="1.00" waitingCount="1" stopTime="0.00" timeLoss="14.51" rerouteNo="0" devices="tripinfo_NS_102" vType="car" speedFactor="0.99" vaporized=""/>
    <tripinfo id="SN_97" depart="97.00" departLane="3i_0" departPos="4.10" departSpeed="0.00" departDelay="0.00" arrival="190.00" arrivalLane="4o_0" arrivalPos="492.80" arrivalSpeed="11.72" duration="93.00" routeLength="995.90" waitingTime="6.00" waitingCount="2" stopTime="0.00" timeLoss="32.31" rerouteNo="0" devices="tripinfo_SN_97" vType="car" speedFactor="1.17" vaporized=""/>
    <tripinfo id="NS_108" depart="108.00" departLane="2i_0" departPos="4.10" departSpeed="0.00" departDelay="0.00" arrival="195.00" arrivalLane="1o_0" arrivalPos="492.80" arrivalSpeed="10.39" duration="87.00" routeLength="995.90" waitingTime="0.00" waitingCount="0" stopTime="0.00" timeLoss="14.06" rerouteNo="0" devices="tripinfo_NS_108" vType="car" speedFactor="0.97" vaporized=""/>
    <tripinfo id="WE_109" depart="109.00" departLane="1i_0" departPos="10.10" departSpeed="0.00" departDelay="0.00" arrival="197.00" arrivalLane="4o_0" arrivalPos="492.80" arrivalSpeed="11.60" duration="88.00" routeLength="989.70" waitingTime="1.00" waitingCount="1" stopTime="0.00" timeLoss="21.57" rerouteNo="0" devices="tripinfo_WE_109" vType="truck" speedFactor="1.09" vaporized=""/>
    <tripinfo id="NS_112" depart="112.00" departLane="2i_0" departPos="4.10" departSpeed="0.00" departDelay="0.00" arrival="197.00" arrivalLane="1o_0" arrivalPos="492.80" arrivalSpeed="11.83" duration="85.00" routeLength="995.90" waitingTime="0.00" waitingCount="0" stopTime="0.00" timeLoss="20.31" rerouteNo="0" devices="tripinfo_NS_112" vType="car" speedFactor="1.10" vaporized=""/>
    <tripinfo id="NS_129" depart="129.00" departLane="2i_0" departPos="4.10" departSpeed="0.00" departDelay="0.00" arrival="205.00" arrivalLane="3o_0" arrivalPos="492.80" arrivalSpeed="11.48" duration="76.00" routeLength="995.70" waitingTime="0.00" waitingCount="0" stopTime="0.00" timeLoss="10.98" rerouteNo="0" devices="tripinfo_NS_129" vType="car" speedFactor="1.09" vaporized=""/>
    <tripinfo id="NS_130" depart="132.00" departLane="2i_0" departPos="10.10" departSpeed="0.00" departDelay="2.00" arrival="253.00" arrivalLane="3o_0" arrivalPos="492.80" arrivalSpeed="11.23" duration="121.00" routeLength="989.70" waitingTime="31.00" waitingCount="1" stopTime="0.00" timeLoss="52.49" rerouteNo="0" devices="tripinfo_NS_130" vType="truck" speedFactor="1.04" vaporized=""/>
    <tripinfo id="NS_165" depart="165.00" departLane="2i_0" departPos="4.10" departSpeed="0.00" departDelay="0.00" arrival="253.00" arrivalLane="1o_0" arrivalPos="492.80" arrivalSpeed="11.16" duration="88.00" routeLength="995.90" waitingTime="8.00" waitingCount="1" stopTime="0.00" timeLoss="24.47" rerouteNo="0" devices="tripinfo_NS_165" vType="car" speedFactor="1.12" vaporized=""/>
    <tripinfo id="NS_156" depart="156.00" departLane="2i_0" departPos="4.10" departSpeed="0.00" departDelay="0.00" arrival="257.00" arrivalLane="3o_0" arrivalPos="492.80" arrivalSpeed="10.50" duration="101.00" routeLength="995.70" waitingTime="14.00" waitingCount="1" stopTime="0.00" timeLoss="31.44" rerouteNo="0" devices="tripinfo_NS_156" vType="car" speedFactor="1.02" vaporized=""/>
    <tripinfo id="NS_176" depart="176.00" departLane="2i_0" departPos="4.10" departSpeed="0.00" departDelay="0.00" arrival="265.00" arrivalLane="4o_0" arrivalPos="492.80" arrivalSpeed="9.88" duration="89.00" routeLength="990.53" waitingTime="0.00" waitingCount="0" stopTime="0.00" timeLoss="11.46" rerouteNo="0" devices="tripinfo_NS_176" vType="car" speedFactor="0.91" vaporized=""/>
    <tripinfo id="WE_133" depart="133.00" departLane="1i_0" departPos="4.10" departSpeed="0.00" departDelay="0.00" arrival="266.00" arrivalLane="4o_0" arrivalPos="492.80" arrivalSpeed="10.93" duration="133.00" routeLength="995.70" waitingTime="46.00" waitingCount="1" stopTime="0.00" timeLoss="62.22" rerouteNo="0" devices="tripinfo_WE_133" vType="car" speedFactor="1.00" vaporized=""/>
    <tripinfo id="EW_108" depart="109.00" departLane="4i_0" departPos="4.10" departSpeed="0.00" departDelay="1.00" arrival="267.00" arrivalLane="3o_0" arrivalPos="492.80" arrivalSpeed="10.27" duration="158.00" routeLength="995.90" waitingTime="73.00" waitingCount="1" stopTime="0.00" timeLoss="88.45" rerouteNo="0" devices="tripinfo_EW_108" vType="car" speedFactor="1.02" vaporized=""/>
    <tripinfo id="SN_124" depart="124.00" departLane="3i_0" departPos="4.10" departSpeed="0.00" departDelay="0.00" arrival="268.00" arrivalLane="4o_0" arrivalPos="492.80" arrivalSpeed="10.31" duration="144.00" routeLength="995.90" waitingTime="58.00" waitingCount="2" stopTime="0.00" timeLoss="75.30" rerouteNo="0" devices="tripinfo_SN_124" vType="car" speedFactor="1.03" vaporized=""/>
    <tripinfo id="NS_191" depart="191.00" departLane="2i_0" departPos="10.10" departSpeed="0.00" departDelay="0.00" arrival="273.00" arrivalLane="4o_0" arrivalPos="492.80" arrivalSpeed="10.93" duration="82.00" routeLength="984.53" waitingTime="0.00" waitingCount="0" stopTime="0.00" timeLoss="12.60" rerouteNo="0" devices="tripinfo_NS_191" vType="truck" speedFactor="1.01" vaporized=""/>
    <tripinfo id="WE_141" depart="141.00" departLane="1i_0" departPos="4.10" departSpeed="0.00" departDelay="0.00" arrival="280.00" arrivalLane="4o_0" arrivalPos="492.80" arrivalSpeed="12.56" duration="139.00" routeLength="995.70" waitingTime="61.00" waitingCount="2" stopTime="0.00" timeLoss="78.02" rerouteNo="0" devices="tripinfo_WE_141" vType="car" speedFactor="1.17" vaporized=""/>
    <tripinfo id="EW_117" depart="117.00" departLane="4i_0" departPos="4.10" departSpeed="0.00" departDelay="0.00" arrival="283.00" arrivalLane="1o_0" arrivalPos="492.80" arrivalSpeed="8.99" duration="166.00" routeLength="990.53" waitingTime="69.00" waitingCount="2" stopTime="0.00" timeLoss="87.94" rerouteNo="0" devices="tripinfo_EW_117" vType="car" speedFactor="0.90" vaporized=""/>
    <tripinfo id="WE_145" depart="146.00" departLane="1i_0" departPos="4.10" departSpeed="0.00" departDelay="1.00" arrival="284.00" arrivalLane="3o_0" arrivalPos="492.80" arrivalSpeed="12.16" duration="138.00" routeLength="990.53" waitingTime="55.00" waitingCount="2" stopTime="0.00" timeLoss="73.51" rerouteNo="0" devices="tripinfo_WE_145" vType="car" speedFactor="1.10" vaporized=""/>
    <tripinfo id="SN_129" depart="129.00" departLane="3i_0" departPos="4.10" departSpeed="0.00" departDelay="0.00" arrival="285.00" arrivalLane="1o_0" arrivalPos="492.80" arrivalSpeed="11.38" duration="156.00" routeLength="995.70" waitingTime="60.00" waitingCount="3" stopTime="0.00" timeLoss="87.55" rerouteNo="0" devices="tripinfo_SN_129" vType="car" speedFactor="1.04" vaporized=""/>
    <tripinfo id="NS_200" depart="200.00" departLane="2i_0" departPos="4.10" departSpeed="0.00" departDelay="0.00" arrival="287.00" arrivalLane="1o_0" arrivalPos="492.80" arrivalSpeed="11.60" duration="87.00" routeLength="995.90" waitingTime="0.00" waitingCount="0" stopTime="0.00" timeLoss="19.49" rerouteNo="0" devices="tripinfo_NS_200" vType="car" speedFactor="1.06" vaporized=""/>
    <tripinfo id="EW_130" depart="130.00" departLane="4i_0" departPos="4.10" departSpeed="0.00" departDelay="0.00" arrival="291.00" arrivalLane="2o_0" arrivalPos="492.80" arrivalSpeed="10.34" duration="161.00" routeLength="995.70" waitingTime="67.00" waitingCount="3" stopTime="0.00" timeLoss="93.05" rerouteNo="0" devices="tripinfo_EW_130" vType="car" speedFactor="1.04" vaporized=""/>
    <tripinfo id="EW_125" depart="125.00" departLane="4i_0" departPos="4.10" departSpeed="0.00" departDelay="0.00" arrival="294.00" arrivalLane="3o_0" arrivalPos="492.80" arrivalSpeed="10.53" duration="169.00" routeLength="995.90" waitingTime="72.00" waitingCount="3" stopTime="0.00" timeLoss="94.43" rerouteNo="0" devices="tripinfo_EW_125" vType="car" speedFactor="0.96" vaporized=""/>
    <tripinfo id="WE_161" depart="161.00" departLane="1i_0" departPos="4.10" departSpeed="0.00" departDelay="0.00" arrival="296.00" arrivalLane="3o_0" arrivalPos="492.80" arrivalSpeed="10.75" duration="135.00" routeLength="990.53" waitingTime="39.00" waitingCount="3" stopTime="0.00" timeLoss="69.69" rerouteNo="0" devices="tripinfo_WE_161" vType="car" speedFactor="1.08" vaporized=""/>
    <tripinfo id="SN_135" depart="135.00" departLane="3i_0" departPos="4.10" departSpeed="0.00" departDelay="0.00" arrival="304.00" arrivalLane="1o_0" arrivalPos="492.80" arrivalSpeed="8.75" duration="169.00" routeLength="995.70" waitingTime="56.00" waitingCount="4" stopTime="0.00" timeLoss="85.89" rerouteNo="0" devices="tripinfo_SN_135" vType="car" speedFactor="0.85" vaporized=""/>
    <tripinfo id="WE_155" depart="155.00" departLane="1i_0" departPos="4.10" departSpeed="0.00" departDelay="0.00" arrival="304.00" arrivalLane="2o_0" arrivalPos="492.80" arrivalSpeed="8.71" duration="149.00" routeLength="995.90" waitingTime="41.00" waitingCount="3" stopTime="0.00" timeLoss="69.83" rerouteNo="0" devices="tripinfo_WE_155" vType="car" speedFactor="0.90" vaporized=""/>
    <tripinfo id="WE_169" depart="170.00" departLane="1i_0" departPos="4.10" departSpeed="0.00" departDelay="1.00" arrival="306.00" arrivalLane="2o_0" arrivalPos="492.80" arrivalSpeed="11.12" duration="136.00" routeLength="995.90" waitingTime="31.00" waitingCount="2" stopTime="0.00" timeLoss="65.47" rerouteNo="0" devices="tripinfo_WE_169" vType="car" speedFactor="1.02" vaporized=""/>
    <tripinfo id="WE_171" depart="172.00" departLane="1i_0" departPos="4.10" departSpeed="0.00" departDelay="1.00" arrival="307.00" arrivalLane="3o_0" arrivalPos="492.80" arrivalSpeed="10.01" duration="135.00" routeLength="990.53" waitingTime="27.00" waitingCount="2" stopTime="0.00" timeLoss="59.61" rerouteNo="0" devices="tripinfo_WE_171" vType="car" speedFactor="0.94" vaporized=""/>
    <tripinfo id="WE_182" depart="182.00" departLane="1i_0" departPos="4.10" departSpeed="0.00" departDelay="0.00" arrival="307.00" arrivalLane="2o_0" arrivalPos="492.80" arrivalSpeed="10.16" duration="125.00" routeLength="995.90" waitingTime="21.00" waitingCount="2" stopTime="0.00" timeLoss="55.80" rerouteNo="0" devices="tripinfo_WE_182" vType="car" speedFactor="1.02" vaporized=""/>
    <tripinfo id="WE_240" depart="240.00" departLane="1i_0" departPos="10.10" departSpeed="0.00" departDelay="0.00" arrival="322.00" arrivalLane="3o_0" arrivalPos="492.80" arrivalSpeed="11.08" duration="82.00" routeLength="984.53" waitingTime="0.00" waitingCount="0" stopTime="0.00" timeLoss="12.07" rerouteNo="0" devices="tripinfo_WE_240" vType="truck" speedFactor="1.01" vaporized=""/>
    <tripinfo id="NS_213" depart="213.00" departLane="2i_0" departPos="4.10" departSpeed="0.00" departDelay="0.00" arrival="328.00" arrivalLane="3o_0" arrivalPos="492.80" arrivalSpeed="11.16" duration="115.00" routeLength="995.70" waitingTime="28.00" waitingCount="1" stopTime="0.00" timeLoss="43.94" rerouteNo="0" devices="tripinfo_NS_213" vType="car" speedFactor="1.01" vaporized=""/>
    <tripinfo id="NS_218" depart="218.00" departLane="2i_0" departPos="4.10" departSpeed="0.00" departDelay="0.00" arrival="328.00" arrivalLane="1o_0" arrivalPos="492.80" arrivalSpeed="11.47" duration="110.00" routeLength="995.90" waitingTime="26.00" waitingCount="1" stopTime="0.00" timeLoss="41.65" rerouteNo="0" devices="tripinfo_NS_218" vType="car" speedFactor="1.03" vaporized=""/>
    <tripinfo id="NS_229" depart="231.00" departLane="2i_0" departPos="4.10" departSpeed="0.00" departDelay="2.00" arrival="329.00" arrivalLane="4o_0" arrivalPos="492.80" arrivalSpeed="11.47" duration="98.00" routeLength="990.53" waitingTime="18.00" waitingCount="1" stopTime="0.00" timeLoss="36.58" rerouteNo="0" devices="tripinfo_NS_229" vType="car" speedFactor="1.15" vaporized=""/>
    <tripinfo id="NS_225" depart="225.00" departLane="2i_0" departPos="4.10" departSpeed="0.00" departDelay="0.00" arrival="332.00" arrivalLane="3o_0" arrivalPos="492.80" arrivalSpeed="11.13" duration="107.00" routeLength="995.70" waitingTime="21.00" waitingCount="1" stopTime="0.00" timeLoss="36.65" rerouteNo="0" devices="tripinfo_NS_225" vType="car" speedFactor="1.02" vaporized=""/>
    <tripinfo id="NS_228" depart="228.00" departLane="2i_0" departPos="4.10" departSpeed="0.00" departDelay="0.00" arrival="336.00" arrivalLane="1o_0" arrivalPos="492.80" arrivalSpeed="10.39" duration="108.00" routeLength="995.90" waitingTime="18.00" waitingCount="1" stopTime="0.00" timeLoss="34.42" rerouteNo="0" devices="tripinfo_NS_228" vType="car" speedFactor="0.97" vaporized=""/>
    <tripinfo id="NS_255" depart="255.00" departLane="2i_0" departPos="4.10" departSpeed="0.00" departDelay="0.00" arrival="351.00" arrivalLane="3o_0" arrivalPos="492.80" arrivalSpeed="8.34" duration="96.00" routeLength="995.70" waitingTime="0.00" waitingCount="0" stopTime="0.00" timeLoss="10.57" rerouteNo="0" devices="tripinfo_NS_255" vType="car" speedFactor="0.83" vaporized=""/>
    <tripinfo id="WE_265" depart="265.00" departLane="1i_0" departPos="4.10" departSpeed="0.00" departDelay="0.00" arrival="351.00" arrivalLane="4o_0" arrivalPos="492.80" arrivalSpeed="9.99" duration="86.00" routeLength="995.70" waitingTime="0.00" waitingCount="0" stopTime="0.00" timeLoss="9.10" rerouteNo="0" devices="tripinfo_WE_265" vType="car" speedFactor="0.92" vaporized=""/>
    <tripinfo id="WE_269" depart="269.00" departLane="1i_0" departPos="4.10" departSpeed="0.00" departDelay="0.00" arrival="352.00" arrivalLane="3o_0" arrivalPos="492.80" arrivalSpeed="9.80" duration="83.00" routeLength="990.53" waitingTime="0.00" waitingCount="0" stopTime="0.00" timeLoss="16.38" rerouteNo="0" devices="tripinfo_WE_269" vType="car" speedFactor="1.06" vaporized=""/>
    <tripinfo id="NS_274" depart="276.00" departLane="2i_0" departPos="4.10" departSpeed="0.00" departDelay="2.00" arrival="352.00" arrivalLane="1o_0" arrivalPos="492.80" arrivalSpeed="10.92" duration="76.00" routeLength="995.90" waitingTime="0.00" waitingCount="0" stopTime="0.00" timeLoss="9.02" rerouteNo="0" devices="tripinfo_NS_274" vType="car" speedFactor="1.06" vaporized=""/>
    <tripinfo id="NS_271" depart="271.00" departLane="2i_0" departPos="4.10" departSpeed="0.00" departDelay="0.00" arrival="353.00" arrivalLane="4o_0" arrivalPos="492.80" arrivalSpeed="10.88" duration="82.00" routeLength="990.53" waitingTime="0.00" waitingCount="0" stopTime="0.00" timeLoss="11.95" rerouteNo="0" devices="tripinfo_NS_271" vType="car" speedFactor="1.01" vaporized=""/>
    <tripinfo id="NS_272" depart="274.00" departLane="2i_0" departPos="4.10" departSpeed="0.00" departDelay="2.00" arrival="354.00" arrivalLane="3o_0" arrivalPos="492.80" arrivalSpeed="11.69" duration="80.00" routeLength="995.70" waitingTime="0.00" waitingCount="0" stopTime="0.00" timeLoss="16.66" rerouteNo="0" devices="tripinfo_NS_272" vType="car" speedFactor="1.12" vaporized=""/>
    <tripinfo id="NS_276" depart="279.00" departLane="2i_0" departPos="4.10" departSpeed="0.00" departDelay="3.00" arrival="363.00" arrivalLane="3o_0" arrivalPos="492.80" arrivalSpeed="9.86" duration="84.00" routeLength="995.70" waitingTime="0.00" waitingCount="0" stopTime="0.00" timeLoss="10.11" rerouteNo="0" devices="tripinfo_NS_276" vType="car" speedFactor="0.96" vaporized=""/>
    <tripinfo id="NS_288" depart="288.00" departLane="2i_0" departPos="4.10" departSpeed="0.00" departDelay="0.00" arrival="373.00" arrivalLane="3o_0" arrivalPos="492.80" arrivalSpeed="9.83" duration="85.00" routeLength="995.70" waitingTime="0.00" waitingCount="0" stopTime="0.00" timeLoss="10.71" rerouteNo="0" devices="tripinfo_NS_288" vType="car" speedFactor="0.95" vaporized=""/>
    <tripinfo id="NS_298" depart="298.00" departLane="2i_0" departPos="10.10" departSpeed="0.00" departDelay="0.00" arrival="378.00" arrivalLane="1o_0" arrivalPos="492.80" arrivalSpeed="10.92" duration="80.00" routeLength="989.90" waitingTime="0.00" waitingCount="0" stopTime="0.00" timeLoss="11.64" rerouteNo="0" devices="tripinfo_NS_298" vType="truck" speedFactor="1.04" vaporized=""/>
    <tripinfo id="NS_303" depart="304.00" departLane="2i_0" departPos="4.10" departSpeed="0.00" departDelay="1.00" arrival="383.00" arrivalLane="3o_0" arrivalPos="492.80" arrivalSpeed="11.22" duration="79.00" routeLength="995.70" waitingTime="0.00" waitingCount="0" stopTime="0.00" timeLoss="10.47" rerouteNo="0" devices="tripinfo_NS_303" vType="car" speedFactor="1.03" vaporized=""/>