<?xml version="1.0" encoding="UTF-8"?>

<!-- generated on 2024-05-05 22:13:00 by Eclipse SUMO sumo Version 1.19.0
<configuration xmlns:xsi="http://www.w3.org/2001/XMLSchema-instance" xsi:noNamespaceSchemaLocation="http://sumo.dlr.de/xsd/sumoConfiguration.xsd">

    <input>
        <net-file value="twoone.net.xml"/>
        <route-files value="route_gen.rou.xml"/>
    </input>

    <output>
        <tripinfo-output value="tripinfo_epi228.xml"/>
    </output>

    <report>
        <no-warnings value="true"/>
    </report>

    <traci_server>
        <remote-port value="44927"/>
    </traci_server>

</configuration>
-->

<tripinfos xmlns:xsi="http://www.w3.org/2001/XMLSchema-instance" xsi:noNamespaceSchemaLocation="http://sumo.dlr.de/xsd/tripinfo_file.xsd">
    <tripinfo id="NS_5" depart="5.00" departLane="2i_0" departPos="4.10" departSpeed="0.00" departDelay="0.00" arrival="83.00" arrivalLane="4o_0" arrivalPos="492.80" arrivalSpeed="11.12" duration="78.00" routeLength="990.53" waitingTime="0.00" waitingCount="0" stopTime="0.00" timeLoss="7.69" rerouteNo="0" devices="tripinfo_NS_5" vType="car" speedFactor="1.01" vaporized=""/>
    <tripinfo id="NS_7" depart="8.00" departLane="2i_0" departPos="4.10" departSpeed="0.00" departDelay="1.00" arrival="86.00" arrivalLane="3o_0" arrivalPos="492.80" arrivalSpeed="11.41" duration="78.00" routeLength="995.70" waitingTime="0.00" waitingCount="0" stopTime="0.00" timeLoss="9.16" rerouteNo="0" devices="tripinfo_NS_7" vType="car" speedFactor="1.03" vaporized=""/>
    <tripinfo id="WE_11" depart="11.00" departLane="1i_0" departPos="4.10" departSpeed="0.00" departDelay="0.00" arrival="106.00" arrivalLane="4o_0" arrivalPos="492.80" arrivalSpeed="8.06" duration="95.00" routeLength="995.70" waitingTime="0.00" waitingCount="0" stopTime="0.00" timeLoss="9.74" rerouteNo="0" devices="tripinfo_WE_11" vType="car" speedFactor="0.83" vaporized=""/>
    <tripinfo id="NS_32" depart="32.00" departLane="2i_0" departPos="4.10" departSpeed="0.00" departDelay="0.00" arrival="107.00" arrivalLane="3o_0" arrivalPos="492.80" arrivalSpeed="11.39" duration="75.00" routeLength="995.70" waitingTime="0.00" waitingCount="0" stopTime="0.00" timeLoss="9.62" rerouteNo="0" devices="tripinfo_NS_32" vType="car" speedFactor="1.09" vaporized=""/>
    <tripinfo id="NS_41" depart="41.00" departLane="2i_0" departPos="4.10" departSpeed="0.00" departDelay="0.00" arrival="119.00" arrivalLane="1o_0" arrivalPos="492.80" arrivalSpeed="10.63" duration="78.00" routeLength="995.90" waitingTime="0.00" waitingCount="0" stopTime="0.00" timeLoss="8.40" rerouteNo="0" devices="tripinfo_NS_41" vType="car" speedFactor="1.03" vaporized=""/>
    <tripinfo id="WE_47" depart="47.00" departLane="1i_0" departPos="4.10" departSpeed="0.00" departDelay="0.00" arrival="120.00" arrivalLane="2o_0" arrivalPos="492.80" arrivalSpeed="12.43" duration="73.00" routeLength="995.90" waitingTime="0.00" waitingCount="0" stopTime="0.00" timeLoss="9.64" rerouteNo="0" devices="tripinfo_WE_47" vType="car" speedFactor="1.12" vaporized=""/>
    <tripinfo id="WE_43" depart="43.00" departLane="1i_0" departPos="4.10" departSpeed="0.00" departDelay="0.00" arrival="122.00" arrivalLane="4o_0" arrivalPos="492.80" arrivalSpeed="10.60" duration="79.00" routeLength="995.70" waitingTime="0.00" waitingCount="0" stopTime="0.00" timeLoss="11.18" rerouteNo="0" devices="tripinfo_WE_43" vType="car" speedFactor="1.05" vaporized=""/>
    <tripinfo id="WE_48" depart="50.00" departLane="1i_0" departPos="4.10" departSpeed="0.00" departDelay="2.00" arrival="129.00" arrivalLane="3o_0" arrivalPos="492.80" arrivalSpeed="9.84" duration="79.00" routeLength="990.53" waitingTime="0.00" waitingCount="0" stopTime="0.00" timeLoss="7.71" rerouteNo="0" devices="tripinfo_WE_48" vType="car" speedFactor="0.99" vaporized=""/>
    <tripinfo id="WE_55" depart="55.00" departLane="1i_0" departPos="4.10" departSpeed="0.00" departDelay="0.00" arrival="139.00" arrivalLane="3o_0" arrivalPos="492.80" arrivalSpeed="10.08" duration="84.00" routeLength="990.53" waitingTime="0.00" waitingCount="0" stopTime="0.00" timeLoss="8.34" rerouteNo="0" devices="tripinfo_WE_55" vType="car" speedFactor="0.94" vaporized=""/>
    <tripinfo id="NS_59" depart="59.00" departLane="2i_0" departPos="4.10" departSpeed="0.00" departDelay="0.00" arrival="141.00" arrivalLane="3o_0" arrivalPos="492.80" arrivalSpeed="12.38" duration="82.00" routeLength="995.70" waitingTime="0.00" waitingCount="0" stopTime="0.00" timeLoss="20.24" rerouteNo="0" devices="tripinfo_NS_59" vType="car" speedFactor="1.16" vaporized=""/>
    <tripinfo id="WE_69" depart="69.00" departLane="1i_0" departPos="4.10" departSpeed="0.00" departDelay="0.00" arrival="149.00" arrivalLane="4o_0" arrivalPos="492.80" arrivalSpeed="11.09" duration="80.00" routeLength="995.70" waitingTime="0.00" waitingCount="0" stopTime="0.00" timeLoss="10.59" rerouteNo="0" devices="tripinfo_WE_69" vType="car" speedFactor="1.02" vaporized=""/>
    <tripinfo id="WE_72" depart="72.00" departLane="1i_0" departPos="4.10" departSpeed="0.00" departDelay="0.00" arrival="151.00" arrivalLane="2o_0" arrivalPos="492.80" arrivalSpeed="10.81" duration="79.00" routeLength="995.90" waitingTime="0.00" waitingCount="0" stopTime="0.00" timeLoss="8.74" rerouteNo="0" devices="tripinfo_WE_72" vType="car" speedFactor="1.01" vaporized=""/>
    <tripinfo id="WE_76" depart="76.00" departLane="1i_0" departPos="4.10" departSpeed="0.00" departDelay="0.00" arrival="164.00" arrivalLane="3o_0" arrivalPos="492.80" arrivalSpeed="9.02" duration="88.00" routeLength="990.53" waitingTime="0.00" waitingCount="0" stopTime="0.00" timeLoss="9.02" rerouteNo="0" devices="tripinfo_WE_76" vType="car" speedFactor="0.89" vaporized=""/>
    <tripinfo id="WE_78" depart="79.00" departLane="1i_0" departPos="4.10" departSpeed="0.00" departDelay="1.00" arrival="170.00" arrivalLane="4o_0" arrivalPos="492.80" arrivalSpeed="8.72" duration="91.00" routeLength="995.70" waitingTime="0.00" waitingCount="0" stopTime="0.00" timeLoss="9.61" rerouteNo="0" devices="tripinfo_WE_78" vType="car" speedFactor="0.87" vaporized=""/>
    <tripinfo id="NS_100" depart="100.00" departLane="2i_0" departPos="4.10" departSpeed="0.00" departDelay="0.00" arrival="171.00" arrivalLane="1o_0" arrivalPos="492.80" arrivalSpeed="11.84" duration="71.00" routeLength="995.90" waitingTime="0.00" waitingCount="0" stopTime="0.00" timeLoss="8.31" rerouteNo="0" devices="tripinfo_NS_100" vType="car" speedFactor="1.13" vaporized=""/>
    <tripinfo id="WE_114" depart="114.00" departLane="1i_0" departPos="4.10" departSpeed="0.00" departDelay="0.00" arrival="193.00" arrivalLane="3o_0" arrivalPos="492.80" arrivalSpeed="11.00" duration="79.00" routeLength="990.53" waitingTime="0.00" waitingCount="0" stopTime="0.00" timeLoss="8.18" rerouteNo="0" devices="tripinfo_WE_114" vType="car" speedFactor="0.99" vaporized=""/>
    <tripinfo id="WE_126" depart="126.00" departLane="1i_0" departPos="4.10" departSpeed="0.00" departDelay="0.00" arrival="194.00" arrivalLane="2o_0" arrivalPos="492.80" arrivalSpeed="12.93" duration="68.00" routeLength="995.90" waitingTime="0.00" waitingCount="0" stopTime="0.00" timeLoss="7.45" rerouteNo="0" devices="tripinfo_WE_126" vType="car" speedFactor="1.18" vaporized=""/>
    <tripinfo id="NS_129" depart="129.00" departLane="2i_0" departPos="4.10" departSpeed="0.00" departDelay="0.00" arrival="201.00" arrivalLane="4o_0" arrivalPos="492.80" arrivalSpeed="11.59" duration="72.00" routeLength="990.53" waitingTime="0.00" waitingCount="0" stopTime="0.00" timeLoss="8.03" rerouteNo="0" devices="tripinfo_NS_129" vType="car" speedFactor="1.10" vaporized=""/>
    <tripinfo id="WE_134" depart="134.00" departLane="1i_0" departPos="10.10" departSpeed="0.00" departDelay="0.00" arrival="215.00" arrivalLane="3o_0" arrivalPos="492.80" arrivalSpeed="11.16" duration="81.00" routeLength="984.53" waitingTime="0.00" waitingCount="0" stopTime="0.00" timeLoss="11.39" rerouteNo="0" devices="tripinfo_WE_134" vType="truck" speedFactor="1.02" vaporized=""/>
    <tripinfo id="NS_138" depart="139.00" departLane="2i_0" departPos="4.10" departSpeed="0.00" departDelay="1.00" arrival="217.00" arrivalLane="3o_0" arrivalPos="492.80" arrivalSpeed="11.60" duration="78.00" routeLength="995.70" waitingTime="0.00" waitingCount="0" stopTime="0.00" timeLoss="13.03" rerouteNo="0" devices="tripinfo_NS_138" vType="car" speedFactor="1.09" vaporized=""/>
    <tripinfo id="NS_134" depart="136.00" departLane="2i_0" departPos="4.10" departSpeed="0.00" departDelay="2.00" arrival="219.00" arrivalLane="1o_0" arrivalPos="492.80" arrivalSpeed="9.93" duration="83.00" routeLength="995.90" waitingTime="0.00" waitingCount="0" stopTime="0.00" timeLoss="8.31" rerouteNo="0" devices="tripinfo_NS_134" vType="car" speedFactor="0.96" vaporized=""/>
    <tripinfo id="NS_133" depart="133.00" departLane="2i_0" departPos="4.10" departSpeed="0.00" departDelay="0.00" arrival="220.00" arrivalLane="4o_0" arrivalPos="492.80" arrivalSpeed="9.78" duration="87.00" routeLength="990.53" waitingTime="0.00" waitingCount="0" stopTime="0.00" timeLoss="8.77" rerouteNo="0" devices="tripinfo_NS_133" vType="car" speedFactor="0.90" vaporized=""/>
    <tripinfo id="NS_139" depart="141.00" departLane="2i_0" departPos="4.10" departSpeed="0.00" departDelay="2.00" arrival="220.00" arrivalLane="3o_0" arrivalPos="492.80" arrivalSpeed="10.52" duration="79.00" routeLength="995.70" waitingTime="0.00" waitingCount="0" stopTime="0.00" timeLoss="10.79" rerouteNo="0" devices="tripinfo_NS_139" vType="car" speedFactor="1.04" vaporized=""/>
    <tripinfo id="NS_142" depart="144.00" departLane="2i_0" departPos="4.10" departSpeed="0.00" departDelay="2.00" arrival="220.00" arrivalLane="1o_0" arrivalPos="492.80" arrivalSpeed="10.88" duration="76.00" routeLength="995.90" waitingTime="0.00" waitingCount="0" stopTime="0.00" timeLoss="10.99" rerouteNo="0" devices="tripinfo_NS_142" vType="car" speedFactor="1.09" vaporized=""/>
    <tripinfo id="NS_155" depart="155.00" departLane="2i_0" departPos="4.10" departSpeed="0.00" departDelay="0.00" arrival="246.00" arrivalLane="3o_0" arrivalPos="492.80" arrivalSpeed="9.17" duration="91.00" routeLength="995.70" waitingTime="0.00" waitingCount="0" stopTime="0.00" timeLoss="10.23" rerouteNo="0" devices="tripinfo_NS_155" vType="car" speedFactor="0.88" vaporized=""/>
    <tripinfo id="WE_171" depart="171.00" departLane="1i_0" departPos="4.10" departSpeed="0.00" departDelay="0.00" arrival="249.00" arrivalLane="3o_0" arrivalPos="492.80" arrivalSpeed="10.52" duration="78.00" routeLength="990.53" waitingTime="0.00" waitingCount="0" stopTime="0.00" timeLoss="8.65" rerouteNo="0" devices="tripinfo_WE_171" vType="car" speedFactor="1.02" vaporized=""/>
    <tripinfo id="NS_173" depart="173.00" departLane="2i_0" departPos="4.10" departSpeed="0.00" departDelay="0.00" arrival="254.00" arrivalLane="3o_0" arrivalPos="492.80" arrivalSpeed="10.87" duration="81.00" routeLength="995.70" waitingTime="0.00" waitingCount="0" stopTime="0.00" timeLoss="10.36" rerouteNo="0" devices="tripinfo_NS_173" vType="car" speedFactor="1.00" vaporized=""/>
    <tripinfo id="WE_184" depart="184.00" departLane="1i_0" departPos="4.10" departSpeed="0.00" departDelay="0.00" arrival="256.00" arrivalLane="4o_0" arrivalPos="492.80" arrivalSpeed="12.31" duration="72.00" routeLength="995.70" waitingTime="0.00" waitingCount="0" stopTime="0.00" timeLoss="9.52" rerouteNo="0" devices="tripinfo_WE_184" vType="car" speedFactor="1.14" vaporized=""/>
    <tripinfo id="NS_165" depart="165.00" departLane="2i_0" departPos="4.10" departSpeed="0.00" departDelay="0.00" arrival="257.00" arrivalLane="1o_0" arrivalPos="492.80" arrivalSpeed="8.51" duration="92.00" routeLength="995.90" waitingTime="0.00" waitingCount="0" stopTime="0.00" timeLoss="8.58" rerouteNo="0" devices="tripinfo_NS_165" vType="car" speedFactor="0.85" vaporized=""/>
    <tripinfo id="WE_196" depart="196.00" departLane="1i_0" departPos="4.10" departSpeed="0.00" departDelay="0.00" arrival="266.00" arrivalLane="3o_0" arrivalPos="492.80" arrivalSpeed="11.26" duration="70.00" routeLength="990.53" waitingTime="0.00" waitingCount="0" stopTime="0.00" timeLoss="7.16" rerouteNo="0" devices="tripinfo_WE_196" vType="car" speedFactor="1.12" vaporized=""/>
    <tripinfo id="NS_189" depart="189.00" departLane="2i_0" departPos="4.10" departSpeed="0.00" departDelay="0.00" arrival="267.00" arrivalLane="1o_0" arrivalPos="492.80" arrivalSpeed="10.44" duration="78.00" routeLength="995.90" waitingTime="0.00" waitingCount="0" stopTime="0.00" timeLoss="8.01" rerouteNo="0" devices="tripinfo_NS_189" vType="car" speedFactor="1.02" vaporized=""/>
    <tripinfo id="NS_199" depart="199.00" departLane="2i_0" departPos="4.10" departSpeed="0.00" departDelay="0.00" arrival="276.00" arrivalLane="1o_0" arrivalPos="492.80" arrivalSpeed="11.17" duration="77.00" routeLength="995.90" waitingTime="0.00" waitingCount="0" stopTime="0.00" timeLoss="7.17" rerouteNo="0" devices="tripinfo_NS_199" vType="car" speedFactor="1.02" vaporized=""/>
    <tripinfo id="WE_206" depart="206.00" departLane="1i_0" departPos="4.10" departSpeed="0.00" departDelay="0.00" arrival="286.00" arrivalLane="2o_0" arrivalPos="492.80" arrivalSpeed="10.28" duration="80.00" routeLength="995.90" waitingTime="0.00" waitingCount="0" stopTime="0.00" timeLoss="8.45" rerouteNo="0" devices="tripinfo_WE_206" vType="car" speedFactor="0.99" vaporized=""/>
    <tripinfo id="NS_207" depart="207.00" departLane="2i_0" departPos="4.10" departSpeed="0.00" departDelay="0.00" arrival="291.00" arrivalLane="1o_0" arrivalPos="492.80" arrivalSpeed="9.71" duration="84.00" routeLength="995.90" waitingTime="0.00" waitingCount="0" stopTime="0.00" timeLoss="8.24" rerouteNo="0" devices="tripinfo_NS_207" vType="car" speedFactor="0.94" vaporized=""/>
    <tripinfo id="WE_215" depart="215.00" departLane="1i_0" departPos="4.10" departSpeed="0.00" departDelay="0.00" arrival="293.00" arrivalLane="2o_0" arrivalPos="492.80" arrivalSpeed="11.06" duration="78.00" routeLength="995.90" waitingTime="0.00" waitingCount="0" stopTime="0.00" timeLoss="8.32" rerouteNo="0" devices="tripinfo_WE_215" vType="car" speedFactor="1.02" vaporized=""/>
    <tripinfo id="WE_211" depart="211.00" departLane="1i_0" departPos="4.10" departSpeed="0.00" departDelay="0.00" arrival="297.00" arrivalLane="3o_0" arrivalPos="492.80" arrivalSpeed="9.99" duration="86.00" routeLength="990.53" waitingTime="0.00" waitingCount="0" stopTime="0.00" timeLoss="8.16" rerouteNo="0" devices="tripinfo_WE_211" vType="car" speedFactor="0.91" vaporized=""/>
    <tripinfo id="NS_208" depart="211.00" departLane="2i_0" departPos="10.10" departSpeed="0.00" departDelay="3.00" arrival="302.00" arrivalLane="3o_0" arrivalPos="492.80" arrivalSpeed="10.21" duration="91.00" routeLength="989.70" waitingTime="0.00" waitingCount="0" stopTime="0.00" timeLoss="16.58" rerouteNo="0" devices="tripinfo_NS_208" vType="truck" speedFactor="0.95" vaporized=""/>
    <tripinfo id="NS_214" depart="215.00" departLane="2i_0" departPos="4.10" departSpeed="0.00" departDelay="1.00" arrival="304.00" arrivalLane="3o_0" arrivalPos="492.80" arrivalSpeed="10.39" duration="89.00" routeLength="995.70" waitingTime="0.00" waitingCount="0" stopTime="0.00" timeLoss="20.71" rerouteNo="0" devices="tripinfo_NS_214" vType="car" speedFactor="1.04" vaporized=""/>
    <tripinfo id="NS_224" depart="224.00" departLane="2i_0" departPos="4.10" departSpeed="0.00" departDelay="0.00" arrival="307.00" arrivalLane="1o_0" arrivalPos="492.80" arrivalSpeed="10.47" duration="83.00" routeLength="995.90" waitingTime="0.00" waitingCount="0" stopTime="0.00" timeLoss="8.64" rerouteNo="0" devices="tripinfo_NS_224" vType="car" speedFactor="0.96" vaporized=""/>
    <tripinfo id="WE_231" depart="231.00" departLane="1i_0" departPos="4.10" departSpeed="0.00" departDelay="0.00" arrival="310.00" arrivalLane="3o_0" arrivalPos="492.80" arrivalSpeed="10.90" duration="79.00" routeLength="990.53" waitingTime="0.00" waitingCount="0" stopTime="0.00" timeLoss="7.44" rerouteNo="0" devices="tripinfo_WE_231" vType="car" speedFactor="0.98" vaporized=""/>
    <tripinfo id="NS_241" depart="241.00" departLane="2i_0" departPos="4.10" departSpeed="0.00" departDelay="0.00" arrival="320.00" arrivalLane="3o_0" arrivalPos="492.80" arrivalSpeed="10.57" duration="79.00" routeLength="995.70" waitingTime="0.00" waitingCount="0" stopTime="0.00" timeLoss="10.00" rerouteNo="0" devices="tripinfo_NS_241" vType="car" speedFactor="1.03" vaporized=""/>
    <tripinfo id="WE_253" depart="253.00" departLane="1i_0" departPos="4.10" departSpeed="0.00" departDelay="0.00" arrival="325.00" arrivalLane="4o_0" arrivalPos="492.80" arrivalSpeed="11.99" duration="72.00" routeLength="995.70" waitingTime="0.00" waitingCount="0" stopTime="0.00" timeLoss="10.48" rerouteNo="0" devices="tripinfo_WE_253" vType="car" speedFactor="1.15" vaporized=""/>
    <tripinfo id="WE_250" depart="250.00" departLane="1i_0" departPos="4.10" departSpeed="0.00" departDelay="0.00" arrival="328.00" arrivalLane="2o_0" arrivalPos="492.80" arrivalSpeed="10.30" duration="78.00" routeLength="995.90" waitingTime="0.00" waitingCount="0" stopTime="0.00" timeLoss="8.26" rerouteNo="0" devices="tripinfo_WE_250" vType="car" speedFactor="1.02" vaporized=""/>
    <tripinfo id="WE_256" depart="257.00" departLane="1i_0" departPos="4.10" departSpeed="0.00" departDelay="1.00" arrival="337.00" arrivalLane="2o_0" arrivalPos="492.80" arrivalSpeed="10.22" duration="80.00" routeLength="995.90" waitingTime="0.00" waitingCount="0" stopTime="0.00" timeLoss="9.08" rerouteNo="0" devices="tripinfo_WE_256" vType="car" speedFactor="1.00" vaporized=""/>
    <tripinfo id="WE_269" depart="269.00" departLane="1i_0" departPos="4.10" departSpeed="0.00" departDelay="0.00" arrival="347.00" arrivalLane="2o_0" arrivalPos="492.80" arrivalSpeed="10.86" duration="78.00" routeLength="995.90" waitingTime="0.00" waitingCount="0" stopTime="0.00" timeLoss="8.13" rerouteNo="0" devices="tripinfo_WE_269" vType="car" speedFactor="1.02" vaporized=""/>
    <tripinfo id="WE_277" depart="277.00" departLane="1i_0" departPos="4.10" departSpeed="0.00" departDelay="0.00" arrival="355.00" arrivalLane="2o_0" arrivalPos="492.80" arrivalSpeed="10.83" duration="78.00" routeLength="995.90" waitingTime="0.00" waitingCount="0" stopTime="0.00" timeLoss="12.89" rerouteNo="0" devices="tripinfo_WE_277" vType="car" speedFactor="1.09" vaporized=""/>
    <tripinfo id="WE_273" depart="273.00" departLane="1i_0" departPos="4.10" departSpeed="0.00" departDelay="0.00" arrival="369.00" arrivalLane="4o_0" arrivalPos="492.80" arrivalSpeed="8.06" duration="96.00" routeLength="995.70" waitingTime="0.00" waitingCount="0" stopTime="0.00" timeLoss="10.53" rerouteNo="0" devices="tripinfo_WE_273" vType="car" speedFactor="0.83" vaporized=""/>
    <tripinfo id="NS_289" depart="289.00" departLane="2i_0" departPos="4.10" departSpeed="0.00" departDelay="0.00" arrival="370.00" arrivalLane="4o_0" arrivalPos="492.80" arrivalSpeed="10.86" duration="81.00" routeLength="990.53" waitingTime="0.00" waitingCount="0" stopTime="0.00" timeLoss="16.79" rerouteNo="0" devices="tripinfo_NS_289" vType="car" speedFactor="1.10" vaporized=""/>
    <tripinfo id="WE_282" depart="282.00" departLane="1i_0" departPos="10.10" departSpeed="0.00" departDelay="0.00" arrival="373.00" arrivalLane="4o_0" arrivalPos="492.80" arrivalSpeed="11.00" duration="91.00" routeLength="989.70" waitingTime="0.00" waitingCount="0" stopTime="0.00" timeLoss="20.49" rerouteNo="0" devices="tripinfo_WE_282" vType="truck" speedFactor="1.00" vaporized=""/>
    <tripinfo id="WE_289" depart="289.00" departLane="1i_0" departPos="4.10" departSpeed="0.00" departDelay="0.00" arrival="375.00" arrivalLane="4o_0" arrivalPos="492.80" arrivalSpeed="11.19" duration="86.00" routeLength="995.70" waitingTime="0.00" waitingCount="0" stopTime="0.00" timeLoss="22.63" rerouteNo="0" devices="tripinfo_WE_289" vType="car" speedFactor="1.12" vaporized=""/>
    <tripinfo id="WE_304" depart="304.00" departLane="1i_0" departPos="4.10" departSpeed="0.00" departDelay="0.00" arrival="380.00" arrivalLane="4o_0" arrivalPos="492.80" arrivalSpeed="10.66" duration="76.00" routeLength="995.70" waitingTime="0.00" waitingCount="0" stopTime="0.00" timeLoss="9.64" rerouteNo="0" devices="tripinfo_WE_304" vType="car" speedFactor="1.07" vaporized=""/>
    <tripinfo id="EW_0" depart="0.00" departLane="4i_0" departPos="10.10" departSpeed="0.00" departDelay="0.00" arrival="383.00" arrivalLane="2o_0" arrivalPos="492.80" arrivalSpeed="11.30" duration="383.00" routeLength="975.50" waitingTime="301.00" waitingCount="1" stopTime="0.00" timeLoss="315.98" rerouteNo="0" devices="tripinfo_EW_0" vType="truck" speedFactor="1.03" vaporized=""/>
    <tripinfo id="NS_300" depart="300.00" departLane="2i_0" departPos="4.10" departSpeed="0.00" departDelay="0.00" arrival="384.00" arrivalLane="3o_0" arrivalPos="492.80" arrivalSpeed="9.49" duration="84.00" routeLength="995.70" waitingTime="0.00" waitingCount="0" stopTime="0.00" timeLoss="10.83" rerouteNo="0" devices="tripinfo_NS_300" vType="car" speedFactor="0.97" vaporized=""/>
    <tripinfo id="NS_331" depart="331.00" departLane="2i_0" departPos="4.10" departSpeed="0.00" departDelay="0.00" arrival="404.00" arrivalLane="4o_0" arrivalPos="492.80" arrivalSpeed="11.52" duration="73.00" routeLength="990.53" waitingTime="0.00" waitingCount="0" stopTime="0.00" timeLoss="8.38" rerouteNo="0" devices="tripinfo_NS_331" vType="car" speedFactor="1.10" vaporized=""/>
    <tripinfo id="NS_338" depart="338.00" departLane="2i_0" departPos="4.10" departSpeed="0.00" departDelay="0.00" arrival="406.00" arrivalLane="4o_0" arrivalPos="492.80" arrivalSpeed="11.99" duration="68.00" routeLength="990.53" waitingTime="0.00" waitingCount="0" stopTime="0.00" timeLoss="8.11" rerouteNo="0" devices="tripinfo_NS_338" vType="car" speedFactor="1.18" vaporized=""/>
    <tripinfo id="SN_26" depart="26.00" departLane="3i_0" departPos="4.10" departSpeed="0.00" departDelay="0.00" arrival="420.00" arrivalLane="2o_0" arrivalPos="492.80" arrivalSpeed="8.92" duration="394.00" routeLength="981.50" waitingTime="301.00" waitingCount="1" stopTime="0.00" timeLoss="312.83" rerouteNo="0" devices="tripinfo_SN_26" vType="car" speedFactor="0.86" vaporized=""/>
    <tripinfo id="WE_331" depart="331.00" departLane="1i_0" departPos="10.10" departSpeed="0.00" departDelay="0.00" arrival="422.00" arrivalLane="4o_0" arrivalPos="492.80" arrivalSpeed="10.11" duration="91.00" routeLength="989.70" waitingTime="0.00" waitingCount="0" stopTime="0.00" timeLoss="15.02" rerouteNo="0" devices="tripinfo_WE_331" vType="truck" speedFactor="0.93" vaporized=""/>
    <tripinfo id="WE_340" depart="341.00" departLane="1i_0" departPos="4.10" departSpeed="0.00" departDelay="1.00" arrival="425.00" arrivalLane="4o_0" arrivalPos="492.80" arrivalSpeed="10.64" duration="84.00" routeLength="995.70" waitingTime="0.00" waitingCount="0" stopTime="0.00" timeLoss="13.56" rerouteNo="0" devices="tripinfo_WE_340" vType="car" speedFactor="1.00" vaporized=""/>
    <tripinfo id="WE_338" depart="338.00" departLane="1i_0" departPos="4.10" departSpeed="0.00" departDelay="0.00" arrival="426.00" arrivalLane="2o_0" arrivalPos="492.80" arrivalSpeed="9.46" duration="88.00" routeLength="995.90" waitingTime="0.00" waitingCount="0" stopTime="0.00" timeLoss="11.12" rerouteNo="0" devices="tripinfo_WE_338" vType="car" speedFactor="0.92" vaporized=""/>
    <tripinfo id="WE_359" depart="359.00" departLane="1i_0" departPos="4.10" departSpeed="0.00" departDelay="0.00" arrival="437.00" arrivalLane="4o_0" arrivalPos="492.80" arrivalSpeed="11.39" duration="78.00" routeLength="995.70" waitingTime="0.00" waitingCount="0" stopTime="0.00" timeLoss="9.43" rerouteNo="0" devices="tripinfo_WE_359" vType="car" speedFactor="1.03" vaporized=""/>
    <tripinfo id="WE_369" depart="369.00" departLane="1i_0" departPos="4.10" departSpeed="0.00" departDelay="0.00" arrival="449.00" arrivalLane="4o_0" arrivalPos="492.80" arrivalSpeed="10.59" duration="80.00" routeLength="995.70" waitingTime="0.00" waitingCount="0" stopTime="0.00" timeLoss="11.24" rerouteNo="0" devices="tripinfo_WE_369" vType="car" speedFactor="1.03" vaporized=""/>
    <tripinfo id="WE_361" depart="361.00" departLane="1i_0" departPos="4.10" departSpeed="0.00" departDelay="0.00" arrival="457.00" arrivalLane="3o_0" arrivalPos="492.80" arrivalSpeed="8.24" duration="96.00" routeLength="990.53" waitingTime="0.00" waitingCount="0" stopTime="0.00" timeLoss="10.27" rerouteNo="0" devices="tripinfo_WE_361" vType="car" speedFactor="0.82" vaporized=""/>
    <tripinfo id="WE_378" depart="378.00" departLane="1i_0" departPos="4.10" departSpeed="0.00" departDelay="0.00" arrival="459.00" arrivalLane="3o_0" arrivalPos="492.80" arrivalSpeed="10.04" duration="81.00" routeLength="990.53" waitingTime="0.00" waitingCount="0" stopTime="0.00" timeLoss="11.05" rerouteNo="0" devices="tripinfo_WE_378" vType="car" speedFactor="1.01" vaporized=""/>
    <tripinfo id="NS_382" depart="383.00" departLane="2i_0" departPos="10.10" departSpeed="0.00" departDelay="1.00" arrival="465.00" arrivalLane="4o_0" arrivalPos="492.80" arrivalSpeed="10.79" duration="82.00" routeLength="984.53" waitingTime="0.00" waitingCount="0" stopTime="0.00" timeLoss="12.04" rerouteNo="0" devices="tripinfo_NS_382" vType="truck" speedFactor="1.01" vaporized=""/>
    <tripinfo id="NS_392" depart="393.00" departLane="2i_0" departPos="4.10" departSpeed="0.00" departDelay="1.00" arrival="468.00" arrivalLane="1o_0" arrivalPos="492.80" arrivalSpeed="12.03" duration="75.00" routeLength="995.90" waitingTime="0.00" waitingCount="0" stopTime="0.00" timeLoss="13.55" rerouteNo="0" devices="tripinfo_NS_392" vType="car" speedFactor="1.16" vaporized=""/>
    <tripinfo id="NS_385" depart="387.00" departLane="2i_0" departPos="4.10" departSpeed="0.00" departDelay="2.00" arrival="469.00" arrivalLane="3o_0" arrivalPos="492.80" arrivalSpeed="10.32" duration="82.00" routeLength="995.70" waitingTime="0.00" waitingCount="0" stopTime="0.00" timeLoss="11.65" rerouteNo="0" devices="tripinfo_NS_385" vType="car" speedFactor="1.00" vaporized=""/>
    <tripinfo id="WE_392" depart="392.00" departLane="1i_0" departPos="4.10" departSpeed="0.00" departDelay="0.00" arrival="474.00" arrivalLane="4o_0" arrivalPos="492.80" arrivalSpeed="12.29" duration="82.00" routeLength="995.70" waitingTime="4.00" waitingCount="1" stopTime="0.00" timeLoss="18.48" rerouteNo="0" devices="tripinfo_WE_392" vType="car" speedFactor="1.11" vaporized=""/>
    <tripinfo id="NS_386" depart="390.00" departLane="2i_0" departPos="4.10" departSpeed="0.00" departDelay="4.00" arrival="476.00" arrivalLane="3o_0" arrivalPos="492.80" arrivalSpeed="9.34" duration="86.00" routeLength="995.70" waitingTime="0.00" waitingCount="0" stopTime="0.00" timeLoss="11.59" rerouteNo="0" devices="tripinfo_NS_386" vType="car" speedFactor="0.95" vaporized=""/>
    <tripinfo id="WE_415" depart="415.00" departLane="1i_0" departPos="4.10" departSpeed="0.00" departDelay="0.00" arrival="496.00" arrivalLane="2o_0" arrivalPos="492.80" arrivalSpeed="10.12" duration="81.00" routeLength="995.90" waitingTime="0.00" waitingCount="0" stopTime="0.00" timeLoss="7.80" rerouteNo="0" devices="tripinfo_WE_415" vType="car" speedFactor="0.97" vaporized=""/>
    <tripinfo id="NS_409" depart="409.00" departLane="2i_0" departPos="4.10" departSpeed="0.00" departDelay="0.00" arrival="497.00" arrivalLane="1o_0" arrivalPos="492.80" arrivalSpeed="8.71" duration="88.00" routeLength="995.90" waitingTime="0.00" waitingCount="0" stopTime="0.00" timeLoss="8.31" rerouteNo="0" devices="tripinfo_NS_409" vType="car" speedFactor="0.89" vaporized=""/>
    <tripinfo id="NS_430" depart="430.00" departLane="2i_0" departPos="4.10" departSpeed="0.00" departDelay="0.00" arrival="505.00" arrivalLane="4o_0" arrivalPos="492.80" arrivalSpeed="10.62" duration="75.00" routeLength="990.53" waitingTime="0.00" waitingCount="0" stopTime="0.00" timeLoss="8.30" rerouteNo="0" devices="tripinfo_NS_430" vType="car" speedFactor="1.06" vaporized=""/>
    <tripinfo id="NS_437" depart="437.00" departLane="2i_0" departPos="4.10" departSpeed="0.00" departDelay="0.00" arrival="506.00" arrivalLane="1o_0" arrivalPos="492.80" arrivalSpeed="12.84" duration="69.00" routeLength="995.90" waitingTime="0.00" waitingCount="0" stopTime="0.00" timeLoss="8.62" rerouteNo="0" devices="tripinfo_NS_437" vType="car" speedFactor="1.18" vaporized=""/>
    <tripinfo id="WE_401" depart="401.00" departLane="1i_0" departPos="4.10" departSpeed="0.00" departDelay="0.00" arrival="507.00" arrivalLane="3o_0" arrivalPos="492.80" arrivalSpeed="6.96" duration="106.00" routeLength="990.53" waitingTime="0.00" waitingCount="0" stopTime="0.00" timeLoss="9.87" rerouteNo="0" devices="tripinfo_WE_401" vType="car" speedFactor="0.73" vaporized=""/>
    <tripinfo id="WE_423" depart="423.00" departLane="1i_0" departPos="4.10" departSpeed="0.00" departDelay="0.00" arrival="509.00" arrivalLane="3o_0" arrivalPos="492.80" arrivalSpeed="10.97" duration="86.00" routeLength="990.53" waitingTime="0.00" waitingCount="0" stopTime="0.00" timeLoss="15.15" rerouteNo="0" devices="tripinfo_WE_423" vType="car" speedFactor="1.00" vaporized=""/>
    <tripinfo id="NS_414" depart="414.00" departLane="2i_0" departPos="4.10" departSpeed="0.00" departDelay="0.00" arrival="511.00" arrivalLane="3o_0" arrivalPos="492.80" arrivalSpeed="10.09" duration="97.00" routeLength="995.70" waitingTime="9.00" waitingCount="1" stopTime="0.00" timeLoss="25.81" rerouteNo="0" devices="tripinfo_NS_414" vType="car" speedFactor="1.00" vaporized=""/>
    <tripinfo id="WE_429" depart="429.00" departLane="1i_0" departPos="4.10" departSpeed="0.00" departDelay="0.00" arrival="514.00" arrivalLane="2o_0" arrivalPos="492.80" arrivalSpeed="9.08" duration="85.00" routeLength="995.90" waitingTime="0.00" waitingCount="0" stopTime="0.00" timeLoss="8.37" rerouteNo="0" devices="tripinfo_WE_429" vType="car" speedFactor="0.93" vaporized=""/>