<?xml version="1.0" encoding="UTF-8"?>

<!-- generated on 2024-05-05 22:17:08 by Eclipse SUMO sumo Version 1.19.0
<configuration xmlns:xsi="http://www.w3.org/2001/XMLSchema-instance" xsi:noNamespaceSchemaLocation="http://sumo.dlr.de/xsd/sumoConfiguration.xsd">

    <input>
        <net-file value="twoone.net.xml"/>
        <route-files value="route_gen.rou.xml"/>
    </input>

    <output>
        <tripinfo-output value="tripinfo_epi249.xml"/>
    </output>

    <report>
        <no-warnings value="true"/>
    </report>

    <traci_server>
        <remote-port value="38447"/>
    </traci_server>

</configuration>
-->

<tripinfos xmlns:xsi="http://www.w3.org/2001/XMLSchema-instance" xsi:noNamespaceSchemaLocation="http://sumo.dlr.de/xsd/tripinfo_file.xsd">
    <tripinfo id="SN_0" depart="0.00" departLane="3i_0" departPos="4.10" departSpeed="0.00" departDelay="0.00" arrival="83.00" arrivalLane="4o_0" arrivalPos="492.80" arrivalSpeed="11.46" duration="83.00" routeLength="995.90" waitingTime="1.00" waitingCount="1" stopTime="0.00" timeLoss="15.69" rerouteNo="0" devices="tripinfo_SN_0" vType="car" speedFactor="1.06" vaporized=""/>
    <tripinfo id="WE_9" depart="9.00" departLane="1i_0" departPos="4.10" departSpeed="0.00" departDelay="0.00" arrival="88.00" arrivalLane="2o_0" arrivalPos="492.80" arrivalSpeed="10.81" duration="79.00" routeLength="995.90" waitingTime="0.00" waitingCount="0" stopTime="0.00" timeLoss="8.46" rerouteNo="0" devices="tripinfo_WE_9" vType="car" speedFactor="1.01" vaporized=""/>
    <tripinfo id="WE_13" depart="13.00" departLane="1i_0" departPos="4.10" departSpeed="0.00" departDelay="0.00" arrival="90.00" arrivalLane="3o_0" arrivalPos="492.80" arrivalSpeed="10.18" duration="77.00" routeLength="990.53" waitingTime="0.00" waitingCount="0" stopTime="0.00" timeLoss="8.23" rerouteNo="0" devices="tripinfo_WE_13" vType="car" speedFactor="1.03" vaporized=""/>
    <tripinfo id="WE_3" depart="3.00" departLane="1i_0" departPos="4.10" departSpeed="0.00" departDelay="0.00" arrival="91.00" arrivalLane="4o_0" arrivalPos="492.80" arrivalSpeed="9.59" duration="88.00" routeLength="995.70" waitingTime="0.00" waitingCount="0" stopTime="0.00" timeLoss="12.51" rerouteNo="0" devices="tripinfo_WE_3" vType="car" speedFactor="0.94" vaporized=""/>
    <tripinfo id="SN_11" depart="11.00" departLane="3i_0" departPos="4.10" departSpeed="0.00" departDelay="0.00" arrival="92.00" arrivalLane="2o_0" arrivalPos="492.80" arrivalSpeed="11.77" duration="81.00" routeLength="990.53" waitingTime="1.00" waitingCount="1" stopTime="0.00" timeLoss="15.45" rerouteNo="0" devices="tripinfo_SN_11" vType="car" speedFactor="1.08" vaporized=""/>
    <tripinfo id="WE_19" depart="19.00" departLane="1i_0" departPos="4.10" departSpeed="0.00" departDelay="0.00" arrival="103.00" arrivalLane="3o_0" arrivalPos="492.80" arrivalSpeed="10.19" duration="84.00" routeLength="990.53" waitingTime="0.00" waitingCount="0" stopTime="0.00" timeLoss="8.74" rerouteNo="0" devices="tripinfo_WE_19" vType="car" speedFactor="0.94" vaporized=""/>
    <tripinfo id="SN_16" depart="16.00" departLane="3i_0" departPos="4.10" departSpeed="0.00" departDelay="0.00" arrival="110.00" arrivalLane="4o_0" arrivalPos="492.80" arrivalSpeed="11.41" duration="94.00" routeLength="995.90" waitingTime="2.00" waitingCount="1" stopTime="0.00" timeLoss="26.24" rerouteNo="0" devices="tripinfo_SN_16" vType="car" speedFactor="1.05" vaporized=""/>
    <tripinfo id="WE_41" depart="41.00" departLane="1i_0" departPos="4.10" departSpeed="0.00" departDelay="0.00" arrival="112.00" arrivalLane="3o_0" arrivalPos="492.80" arrivalSpeed="12.43" duration="71.00" routeLength="990.53" waitingTime="0.00" waitingCount="0" stopTime="0.00" timeLoss="7.81" rerouteNo="0" devices="tripinfo_WE_41" vType="car" speedFactor="1.12" vaporized=""/>
    <tripinfo id="SN_13" depart="14.00" departLane="3i_0" departPos="4.10" departSpeed="0.00" departDelay="1.00" arrival="114.00" arrivalLane="2o_0" arrivalPos="492.80" arrivalSpeed="9.19" duration="100.00" routeLength="990.53" waitingTime="1.00" waitingCount="1" stopTime="0.00" timeLoss="14.72" rerouteNo="0" devices="tripinfo_SN_13" vType="car" speedFactor="0.83" vaporized=""/>
    <tripinfo id="WE_24" depart="24.00" departLane="1i_0" departPos="4.10" departSpeed="0.00" departDelay="0.00" arrival="116.00" arrivalLane="2o_0" arrivalPos="492.80" arrivalSpeed="10.49" duration="92.00" routeLength="995.90" waitingTime="0.00" waitingCount="0" stopTime="0.00" timeLoss="22.42" rerouteNo="0" devices="tripinfo_WE_24" vType="car" speedFactor="1.03" vaporized=""/>
    <tripinfo id="EW_21" depart="21.00" departLane="4i_0" departPos="4.10" departSpeed="0.00" departDelay="0.00" arrival="120.00" arrivalLane="1o_0" arrivalPos="492.80" arrivalSpeed="9.17" duration="99.00" routeLength="990.53" waitingTime="4.00" waitingCount="1" stopTime="0.00" timeLoss="17.07" rerouteNo="0" devices="tripinfo_EW_21" vType="car" speedFactor="0.86" vaporized=""/>
    <tripinfo id="SN_22" depart="22.00" departLane="3i_0" departPos="4.10" departSpeed="0.00" departDelay="0.00" arrival="121.00" arrivalLane="4o_0" arrivalPos="492.80" arrivalSpeed="12.09" duration="99.00" routeLength="995.90" waitingTime="3.00" waitingCount="2" stopTime="0.00" timeLoss="33.30" rerouteNo="0" devices="tripinfo_SN_22" vType="car" speedFactor="1.09" vaporized=""/>
    <tripinfo id="NS_36" depart="36.00" departLane="2i_0" departPos="4.10" departSpeed="0.00" departDelay="0.00" arrival="122.00" arrivalLane="1o_0" arrivalPos="492.80" arrivalSpeed="10.93" duration="86.00" routeLength="995.90" waitingTime="0.00" waitingCount="0" stopTime="0.00" timeLoss="18.10" rerouteNo="0" devices="tripinfo_NS_36" vType="car" speedFactor="1.05" vaporized=""/>
    <tripinfo id="SN_17" depart="19.00" departLane="3i_0" departPos="4.10" departSpeed="0.00" departDelay="2.00" arrival="125.00" arrivalLane="2o_0" arrivalPos="492.80" arrivalSpeed="9.52" duration="106.00" routeLength="990.53" waitingTime="3.00" waitingCount="2" stopTime="0.00" timeLoss="25.99" rerouteNo="0" devices="tripinfo_SN_17" vType="car" speedFactor="0.89" vaporized=""/>
    <tripinfo id="EW_47" depart="47.00" departLane="4i_0" departPos="4.10" departSpeed="0.00" departDelay="0.00" arrival="128.00" arrivalLane="1o_0" arrivalPos="492.80" arrivalSpeed="10.95" duration="81.00" routeLength="990.53" waitingTime="0.00" waitingCount="0" stopTime="0.00" timeLoss="9.32" rerouteNo="0" devices="tripinfo_EW_47" vType="car" speedFactor="0.99" vaporized=""/>
    <tripinfo id="NS_62" depart="62.00" departLane="2i_0" departPos="4.10" departSpeed="0.00" departDelay="0.00" arrival="134.00" arrivalLane="3o_0" arrivalPos="492.80" arrivalSpeed="12.59" duration="72.00" routeLength="995.70" waitingTime="0.00" waitingCount="0" stopTime="0.00" timeLoss="10.96" rerouteNo="0" devices="tripinfo_NS_62" vType="car" speedFactor="1.16" vaporized=""/>
    <tripinfo id="NS_64" depart="65.00" departLane="2i_0" departPos="4.10" departSpeed="0.00" departDelay="1.00" arrival="145.00" arrivalLane="3o_0" arrivalPos="492.80" arrivalSpeed="10.14" duration="80.00" routeLength="995.70" waitingTime="0.00" waitingCount="0" stopTime="0.00" timeLoss="10.50" rerouteNo="0" devices="tripinfo_NS_64" vType="car" speedFactor="1.02" vaporized=""/>
    <tripinfo id="WE_57" depart="57.00" departLane="1i_0" departPos="4.10" departSpeed="0.00" departDelay="0.00" arrival="153.00" arrivalLane="4o_0" arrivalPos="492.80" arrivalSpeed="9.22" duration="96.00" routeLength="995.70" waitingTime="5.00" waitingCount="1" stopTime="0.00" timeLoss="19.73" rerouteNo="0" devices="tripinfo_WE_57" vType="car" speedFactor="0.93" vaporized=""/>
    <tripinfo id="WE_61" depart="63.00" departLane="1i_0" departPos="4.10" departSpeed="0.00" departDelay="2.00" arrival="156.00" arrivalLane="3o_0" arrivalPos="492.80" arrivalSpeed="10.26" duration="93.00" routeLength="990.53" waitingTime="1.00" waitingCount="1" stopTime="0.00" timeLoss="17.26" rerouteNo="0" devices="tripinfo_WE_61" vType="car" speedFactor="0.94" vaporized=""/>
    <tripinfo id="WE_59" depart="60.00" departLane="1i_0" departPos="4.10" departSpeed="0.00" departDelay="1.00" arrival="158.00" arrivalLane="4o_0" arrivalPos="492.80" arrivalSpeed="9.22" duration="98.00" routeLength="995.70" waitingTime="3.00" waitingCount="1" stopTime="0.00" timeLoss="17.19" rerouteNo="0" devices="tripinfo_WE_59" vType="car" speedFactor="0.88" vaporized=""/>
    <tripinfo id="WE_79" depart="79.00" departLane="1i_0" departPos="4.10" departSpeed="0.00" departDelay="0.00" arrival="168.00" arrivalLane="4o_0" arrivalPos="492.80" arrivalSpeed="9.03" duration="89.00" routeLength="995.70" waitingTime="0.00" waitingCount="0" stopTime="0.00" timeLoss="9.10" rerouteNo="0" devices="tripinfo_WE_79" vType="car" speedFactor="0.89" vaporized=""/>
    <tripinfo id="WE_80" depart="83.00" departLane="1i_0" departPos="10.10" departSpeed="0.00" departDelay="3.00" arrival="171.00" arrivalLane="2o_0" arrivalPos="492.80" arrivalSpeed="10.14" duration="88.00" routeLength="989.90" waitingTime="0.00" waitingCount="0" stopTime="0.00" timeLoss="10.36" rerouteNo="0" devices="tripinfo_WE_80" vType="truck" speedFactor="0.91" vaporized=""/>
    <tripinfo id="NS_83" depart="83.00" departLane="2i_0" departPos="4.10" departSpeed="0.00" departDelay="0.00" arrival="178.00" arrivalLane="3o_0" arrivalPos="492.80" arrivalSpeed="8.66" duration="95.00" routeLength="995.70" waitingTime="1.00" waitingCount="1" stopTime="0.00" timeLoss="14.09" rerouteNo="0" devices="tripinfo_NS_83" vType="car" speedFactor="0.87" vaporized=""/>
    <tripinfo id="SN_78" depart="78.00" departLane="3i_0" departPos="4.10" departSpeed="0.00" departDelay="0.00" arrival="182.00" arrivalLane="4o_0" arrivalPos="492.80" arrivalSpeed="9.63" duration="104.00" routeLength="995.90" waitingTime="19.00" waitingCount="1" stopTime="0.00" timeLoss="31.45" rerouteNo="0" devices="tripinfo_SN_78" vType="car" speedFactor="0.97" vaporized=""/>
    <tripinfo id="EW_59" depart="59.00" departLane="4i_0" departPos="4.10" departSpeed="0.00" departDelay="0.00" arrival="185.00" arrivalLane="3o_0" arrivalPos="492.80" arrivalSpeed="9.68" duration="126.00" routeLength="995.90" waitingTime="37.00" waitingCount="1" stopTime="0.00" timeLoss="50.25" rerouteNo="0" devices="tripinfo_EW_59" vType="car" speedFactor="0.94" vaporized=""/>
    <tripinfo id="EW_65" depart="65.00" departLane="4i_0" departPos="4.10" departSpeed="0.00" departDelay="0.00" arrival="191.00" arrivalLane="3o_0" arrivalPos="492.80" arrivalSpeed="11.08" duration="126.00" routeLength="995.90" waitingTime="37.00" waitingCount="2" stopTime="0.00" timeLoss="56.21" rerouteNo="0" devices="tripinfo_EW_65" vType="car" speedFactor="1.01" vaporized=""/>
    <tripinfo id="WE_99" depart="99.00" departLane="1i_0" departPos="4.10" departSpeed="0.00" departDelay="0.00" arrival="192.00" arrivalLane="4o_0" arrivalPos="492.80" arrivalSpeed="9.91" duration="93.00" routeLength="995.70" waitingTime="5.00" waitingCount="1" stopTime="0.00" timeLoss="17.74" rerouteNo="0" devices="tripinfo_WE_99" vType="car" speedFactor="0.95" vaporized=""/>
    <tripinfo id="WE_102" depart="102.00" departLane="1i_0" departPos="4.10" departSpeed="0.00" departDelay="0.00" arrival="196.00" arrivalLane="2o_0" arrivalPos="492.80" arrivalSpeed="12.47" duration="94.00" routeLength="995.90" waitingTime="7.00" waitingCount="3" stopTime="0.00" timeLoss="31.28" rerouteNo="0" devices="tripinfo_WE_102" vType="car" speedFactor="1.13" vaporized=""/>
    <tripinfo id="SN_83" depart="83.00" departLane="3i_0" departPos="10.10" departSpeed="0.00" departDelay="0.00" arrival="200.00" arrivalLane="1o_0" arrivalPos="492.80" arrivalSpeed="10.17" duration="117.00" routeLength="989.70" waitingTime="11.00" waitingCount="4" stopTime="0.00" timeLoss="42.91" rerouteNo="0" devices="tripinfo_SN_83" vType="truck" speedFactor="0.96" vaporized=""/>
    <tripinfo id="WE_106" depart="106.00" departLane="1i_0" departPos="4.10" departSpeed="0.00" departDelay="0.00" arrival="207.00" arrivalLane="2o_0" arrivalPos="492.80" arrivalSpeed="10.27" duration="101.00" routeLength="995.90" waitingTime="3.00" waitingCount="1" stopTime="0.00" timeLoss="25.01" rerouteNo="0" devices="tripinfo_WE_106" vType="car" speedFactor="0.93" vaporized=""/>
    <tripinfo id="NS_110" depart="110.00" departLane="2i_0" departPos="4.10" departSpeed="0.00" departDelay="0.00" arrival="207.00" arrivalLane="3o_0" arrivalPos="492.80" arrivalSpeed="10.47" duration="97.00" routeLength="995.70" waitingTime="11.00" waitingCount="1" stopTime="0.00" timeLoss="26.02" rerouteNo="0" devices="tripinfo_NS_110" vType="car" speedFactor="1.01" vaporized=""/>
    <tripinfo id="SN_108" depart="108.00" departLane="3i_0" departPos="4.10" departSpeed="0.00" departDelay="0.00" arrival="209.00" arrivalLane="2o_0" arrivalPos="492.80" arrivalSpeed="12.21" duration="101.00" routeLength="990.53" waitingTime="4.00" waitingCount="2" stopTime="0.00" timeLoss="40.92" rerouteNo="0" devices="tripinfo_SN_108" vType="car" speedFactor="1.18" vaporized=""/>
    <tripinfo id="NS_126" depart="126.00" departLane="2i_0" departPos="4.10" departSpeed="0.00" departDelay="0.00" arrival="209.00" arrivalLane="4o_0" arrivalPos="492.80" arrivalSpeed="10.54" duration="83.00" routeLength="990.53" waitingTime="0.00" waitingCount="0" stopTime="0.00" timeLoss="9.29" rerouteNo="0" devices="tripinfo_NS_126" vType="car" speedFactor="0.96" vaporized=""/>
    <tripinfo id="WE_110" depart="110.00" departLane="1i_0" departPos="4.10" departSpeed="0.00" departDelay="0.00" arrival="211.00" arrivalLane="2o_0" arrivalPos="492.80" arrivalSpeed="12.30" duration="101.00" routeLength="995.90" waitingTime="2.00" waitingCount="1" stopTime="0.00" timeLoss="38.96" rerouteNo="0" devices="tripinfo_WE_110" vType="car" speedFactor="1.15" vaporized=""/>
    <tripinfo id="SN_121" depart="121.00" departLane="3i_0" departPos="4.10" departSpeed="0.00" departDelay="0.00" arrival="212.00" arrivalLane="2o_0" arrivalPos="492.80" arrivalSpeed="11.27" duration="91.00" routeLength="990.53" waitingTime="7.00" waitingCount="2" stopTime="0.00" timeLoss="27.32" rerouteNo="0" devices="tripinfo_SN_121" vType="car" speedFactor="1.10" vaporized=""/>
    <tripinfo id="NS_131" depart="131.00" departLane="2i_0" departPos="4.10" departSpeed="0.00" departDelay="0.00" arrival="214.00" arrivalLane="3o_0" arrivalPos="492.80" arrivalSpeed="10.38" duration="83.00" routeLength="995.70" waitingTime="2.00" waitingCount="1" stopTime="0.00" timeLoss="14.62" rerouteNo="0" devices="tripinfo_NS_131" vType="car" speedFactor="1.04" vaporized=""/>
    <tripinfo id="EW_114" depart="114.00" departLane="4i_0" departPos="4.10" departSpeed="0.00" departDelay="0.00" arrival="216.00" arrivalLane="3o_0" arrivalPos="492.80" arrivalSpeed="11.97" duration="102.00" routeLength="995.90" waitingTime="20.00" waitingCount="2" stopTime="0.00" timeLoss="41.01" rerouteNo="0" devices="tripinfo_EW_114" vType="car" speedFactor="1.17" vaporized=""/>
    <tripinfo id="WE_115" depart="115.00" departLane="1i_0" departPos="4.10" departSpeed="0.00" departDelay="0.00" arrival="217.00" arrivalLane="4o_0" arrivalPos="492.80" arrivalSpeed="9.79" duration="102.00" routeLength="995.70" waitingTime="3.00" waitingCount="2" stopTime="0.00" timeLoss="30.86" rerouteNo="0" devices="tripinfo_WE_115" vType="car" speedFactor="0.99" vaporized=""/>
    <tripinfo id="WE_116" depart="118.00" departLane="1i_0" departPos="4.10" departSpeed="0.00" departDelay="2.00" arrival="222.00" arrivalLane="3o_0" arrivalPos="492.80" arrivalSpeed="10.10" duration="104.00" routeLength="990.53" waitingTime="4.00" waitingCount="2" stopTime="0.00" timeLoss="34.52" rerouteNo="0" devices="tripinfo_WE_116" vType="car" speedFactor="1.02" vaporized=""/>
    <tripinfo id="EW_119" depart="121.00" departLane="4i_0" departPos="4.10" departSpeed="0.00" departDelay="2.00" arrival="226.00" arrivalLane="2o_0" arrivalPos="492.80" arrivalSpeed="10.50" duration="105.00" routeLength="995.70" waitingTime="13.00" waitingCount="2" stopTime="0.00" timeLoss="31.63" rerouteNo="0" devices="tripinfo_EW_119" vType="car" speedFactor="0.97" vaporized=""/>
    <tripinfo id="SN_130" depart="130.00" departLane="3i_0" departPos="4.10" departSpeed="0.00" departDelay="0.00" arrival="226.00" arrivalLane="4o_0" arrivalPos="492.80" arrivalSpeed="10.96" duration="96.00" routeLength="995.90" waitingTime="6.00" waitingCount="3" stopTime="0.00" timeLoss="31.35" rerouteNo="0" devices="tripinfo_SN_130" vType="car" speedFactor="1.09" vaporized=""/>
    <tripinfo id="WE_120" depart="122.00" departLane="1i_0" departPos="4.10" departSpeed="0.00" departDelay="2.00" arrival="227.00" arrivalLane="2o_0" arrivalPos="492.80" arrivalSpeed="11.79" duration="105.00" routeLength="995.90" waitingTime="1.00" waitingCount="1" stopTime="0.00" timeLoss="44.97" rerouteNo="0" devices="tripinfo_WE_120" vType="car" speedFactor="1.18" vaporized=""/>
    <tripinfo id="SN_123" depart="124.00" departLane="3i_0" departPos="4.10" departSpeed="0.00" departDelay="1.00" arrival="230.00" arrivalLane="1o_0" arrivalPos="492.80" arrivalSpeed="9.38" duration="106.00" routeLength="995.70" waitingTime="6.00" waitingCount="2" stopTime="0.00" timeLoss="26.80" rerouteNo="0" devices="tripinfo_SN_123" vType="car" speedFactor="0.90" vaporized=""/>
    <tripinfo id="EW_148" depart="148.00" departLane="4i_0" departPos="4.10" departSpeed="0.00" departDelay="0.00" arrival="234.00" arrivalLane="2o_0" arrivalPos="492.80" arrivalSpeed="10.41" duration="86.00" routeLength="995.70" waitingTime="1.00" waitingCount="1" stopTime="0.00" timeLoss="14.97" rerouteNo="0" devices="tripinfo_EW_148" vType="car" speedFactor="1.00" vaporized=""/>
    <tripinfo id="WE_125" depart="125.00" departLane="1i_0" departPos="4.10" departSpeed="0.00" departDelay="0.00" arrival="239.00" arrivalLane="4o_0" arrivalPos="492.80" arrivalSpeed="10.63" duration="114.00" routeLength="995.70" waitingTime="7.00" waitingCount="1" stopTime="0.00" timeLoss="45.26" rerouteNo="0" devices="tripinfo_WE_125" vType="car" speedFactor="1.03" vaporized=""/>
    <tripinfo id="WE_133" depart="133.00" departLane="1i_0" departPos="4.10" departSpeed="0.00" departDelay="0.00" arrival="241.00" arrivalLane="2o_0" arrivalPos="492.80" arrivalSpeed="10.66" duration="108.00" routeLength="995.90" waitingTime="5.00" waitingCount="1" stopTime="0.00" timeLoss="39.98" rerouteNo="0" devices="tripinfo_WE_133" vType="car" speedFactor="1.04" vaporized=""/>
    <tripinfo id="WE_162" depart="162.00" departLane="1i_0" departPos="4.10" departSpeed="0.00" departDelay="0.00" arrival="243.00" arrivalLane="4o_0" arrivalPos="492.80" arrivalSpeed="10.91" duration="81.00" routeLength="995.70" waitingTime="0.00" waitingCount="0" stopTime="0.00" timeLoss="16.35" rerouteNo="0" devices="tripinfo_WE_162" vType="car" speedFactor="1.10" vaporized=""/>
    <tripinfo id="NS_150" depart="150.00" departLane="2i_0" departPos="4.10" departSpeed="0.00" departDelay="0.00" arrival="245.00" arrivalLane="3o_0" arrivalPos="492.80" arrivalSpeed="9.75" duration="95.00" routeLength="995.70" waitingTime="2.00" waitingCount="1" stopTime="0.00" timeLoss="15.78" rerouteNo="0" devices="tripinfo_NS_150" vType="car" speedFactor="0.90" vaporized=""/>
    <tripinfo id="WE_155" depart="155.00" departLane="1i_0" departPos="4.10" departSpeed="0.00" departDelay="0.00" arrival="253.00" arrivalLane="2o_0" arrivalPos="492.80" arrivalSpeed="8.28" duration="98.00" routeLength="995.90" waitingTime="0.00" waitingCount="0" stopTime="0.00" timeLoss="14.81" rerouteNo="0" devices="tripinfo_WE_155" vType="car" speedFactor="0.85" vaporized=""/>
    <tripinfo id="WE_166" depart="166.00" departLane="1i_0" departPos="4.10" departSpeed="0.00" departDelay="0.00" arrival="255.00" arrivalLane="2o_0" arrivalPos="492.80" arrivalSpeed="10.65" duration="89.00" routeLength="995.90" waitingTime="0.00" waitingCount="0" stopTime="0.00" timeLoss="17.26" rerouteNo="0" devices="tripinfo_WE_166" vType="car" speedFactor="1.00" vaporized=""/>
    <tripinfo id="NS_179" depart="180.00" departLane="2i_0" departPos="10.10" departSpeed="0.00" departDelay="1.00" arrival="259.00" arrivalLane="4o_0" arrivalPos="492.80" arrivalSpeed="11.87" duration="79.00" routeLength="984.53" waitingTime="0.00" waitingCount="0" stopTime="0.00" timeLoss="12.55" rerouteNo="0" devices="tripinfo_NS_179" vType="truck" speedFactor="1.07" vaporized=""/>
    <tripinfo id="NS_177" depart="177.00" departLane="2i_0" departPos="4.10" departSpeed="0.00" departDelay="0.00" arrival="263.00" arrivalLane="1o_0" arrivalPos="492.80" arrivalSpeed="8.81" duration="86.00" routeLength="995.90" waitingTime="0.00" waitingCount="0" stopTime="0.00" timeLoss="7.40" rerouteNo="0" devices="tripinfo_NS_177" vType="car" speedFactor="0.90" vaporized=""/>
    <tripinfo id="NS_188" depart="188.00" departLane="2i_0" departPos="4.10" departSpeed="0.00" departDelay="0.00" arrival="266.00" arrivalLane="4o_0" arrivalPos="492.80" arrivalSpeed="10.55" duration="78.00" routeLength="990.53" waitingTime="0.00" waitingCount="0" stopTime="0.00" timeLoss="8.09" rerouteNo="0" devices="tripinfo_NS_188" vType="car" speedFactor="1.02" vaporized=""/>
    <tripinfo id="NS_211" depart="215.00" departLane="2i_0" departPos="4.10" departSpeed="0.00" departDelay="4.00" arrival="295.00" arrivalLane="3o_0" arrivalPos="492.80" arrivalSpeed="10.85" duration="80.00" routeLength="995.70" waitingTime="0.00" waitingCount="0" stopTime="0.00" timeLoss="11.58" rerouteNo="0" devices="tripinfo_NS_211" vType="car" speedFactor="1.04" vaporized=""/>
    <tripinfo id="NS_210" depart="212.00" departLane="2i_0" departPos="4.10" departSpeed="0.00" departDelay="2.00" arrival="298.00" arrivalLane="4o_0" arrivalPos="492.80" arrivalSpeed="9.09" duration="86.00" routeLength="990.53" waitingTime="0.00" waitingCount="0" stopTime="0.00" timeLoss="9.10" rerouteNo="0" devices="tripinfo_NS_210" vType="car" speedFactor="0.91" vaporized=""/>
    <tripinfo id="WE_180" depart="180.00" departLane="1i_0" departPos="4.10" departSpeed="0.00" departDelay="0.00" arrival="302.00" arrivalLane="4o_0" arrivalPos="492.80" arrivalSpeed="11.08" duration="122.00" routeLength="995.70" waitingTime="38.00" waitingCount="1" stopTime="0.00" timeLoss="52.73" rerouteNo="0" devices="tripinfo_WE_180" vType="car" speedFactor="1.02" vaporized=""/>
    <tripinfo id="NS_212" depart="218.00" departLane="2i_0" departPos="4.10" departSpeed="0.00" departDelay="6.00" arrival="302.00" arrivalLane="3o_0" arrivalPos="492.80" arrivalSpeed="9.73" duration="84.00" routeLength="995.70" waitingTime="0.00" waitingCount="0" stopTime="0.00" timeLoss="10.95" rerouteNo="0" devices="tripinfo_NS_212" vType="car" speedFactor="0.97" vaporized=""/>
    <tripinfo id="SN_142" depart="142.00" departLane="3i_0" departPos="4.10" departSpeed="0.00" departDelay="0.00" arrival="304.00" arrivalLane="4o_0" arrivalPos="492.80" arrivalSpeed="11.66" duration="162.00" routeLength="995.90" waitingTime="67.00" waitingCount="3" stopTime="0.00" timeLoss="96.49" rerouteNo="0" devices="tripinfo_SN_142" vType="car" speedFactor="1.09" vaporized=""/>
    <tripinfo id="EW_159" depart="159.00" departLane="4i_0" departPos="4.10" departSpeed="0.00" departDelay="0.00" arrival="304.00" arrivalLane="2o_0" arrivalPos="492.80" arrivalSpeed="12.19" duration="145.00" routeLength="995.70" waitingTime="62.00" waitingCount="2" stopTime="0.00" timeLoss="84.00" rerouteNo="0" devices="tripinfo_EW_159" vType="car" speedFactor="1.17" vaporized=""/>
    <tripinfo id="EW_153" depart="153.00" departLane="4i_0" departPos="4.10" departSpeed="0.00" departDelay="0.00" arrival="308.00" arrivalLane="1o_0" arrivalPos="492.80" arrivalSpeed="9.52" duration="155.00" routeLength="990.53" waitingTime="62.00" waitingCount="1" stopTime="0.00" timeLoss="74.70" rerouteNo="0" devices="tripinfo_EW_153" vType="car" speedFactor="0.88" vaporized=""/>
    <tripinfo id="WE_212" depart="212.00" departLane="1i_0" departPos="4.10" departSpeed="0.00" departDelay="0.00" arrival="309.00" arrivalLane="3o_0" arrivalPos="492.80" arrivalSpeed="10.58" duration="97.00" routeLength="990.53" waitingTime="12.00" waitingCount="2" stopTime="0.00" timeLoss="27.50" rerouteNo="0" devices="tripinfo_WE_212" vType="car" speedFactor="1.02" vaporized=""/>
    <tripinfo id="EW_161" depart="161.00" departLane="4i_0" departPos="4.10" departSpeed="0.00" departDelay="0.00" arrival="310.00" arrivalLane="1o_0" arrivalPos="492.80" arrivalSpeed="11.27" duration="149.00" routeLength="990.53" waitingTime="59.00" waitingCount="2" stopTime="0.00" timeLoss="79.93" rerouteNo="0" devices="tripinfo_EW_161" vType="car" speedFactor="1.02" vaporized=""/>
    <tripinfo id="NS_221" depart="221.00" departLane="2i_0" departPos="4.10" departSpeed="0.00" departDelay="0.00" arrival="313.00" arrivalLane="3o_0" arrivalPos="492.80" arrivalSpeed="10.98" duration="92.00" routeLength="995.70" waitingTime="7.00" waitingCount="2" stopTime="0.00" timeLoss="22.92" rerouteNo="0" devices="tripinfo_NS_221" vType="car" speedFactor="1.03" vaporized=""/>
    <tripinfo id="SN_154" depart="156.00" departLane="3i_0" departPos="4.10" departSpeed="0.00" departDelay="2.00" arrival="316.00" arrivalLane="4o_0" arrivalPos="492.80" arrivalSpeed="9.21" duration="160.00" routeLength="995.90" waitingTime="60.00" waitingCount="2" stopTime="0.00" timeLoss="76.98" rerouteNo="0" devices="tripinfo_SN_154" vType="car" speedFactor="0.85" vaporized=""/>
    <tripinfo id="WE_217" depart="217.00" departLane="1i_0" departPos="10.10" departSpeed="0.00" departDelay="0.00" arrival="319.00" arrivalLane="2o_0" arrivalPos="492.80" arrivalSpeed="10.46" duration="102.00" routeLength="989.90" waitingTime="2.00" waitingCount="1" stopTime="0.00" timeLoss="29.74" rerouteNo="0" devices="tripinfo_WE_217" vType="truck" speedFactor="0.98" vaporized=""/>
    <tripinfo id="NS_234" depart="234.00" departLane="2i_0" departPos="4.10" departSpeed="0.00" departDelay="0.00" arrival="323.00" arrivalLane="3o_0" arrivalPos="492.80" arrivalSpeed="10.15" duration="89.00" routeLength="995.70" waitingTime="3.00" waitingCount="1" stopTime="0.00" timeLoss="18.01" rerouteNo="0" devices="tripinfo_NS_234" vType="car" speedFactor="1.00" vaporized=""/>
    <tripinfo id="EW_164" depart="165.00" departLane="4i_0" departPos="4.10" departSpeed="0.00" departDelay="1.00" arrival="326.00" arrivalLane="3o_0" arrivalPos="492.80" arrivalSpeed="10.60" duration="161.00" routeLength="995.90" waitingTime="63.00" waitingCount="3" stopTime="0.00" timeLoss="89.96" rerouteNo="0" devices="tripinfo_EW_164" vType="car" speedFactor="1.00" vaporized=""/>
    <tripinfo id="EW_181" depart="183.00" departLane="4i_0" departPos="4.10" departSpeed="0.00" departDelay="2.00" arrival="327.00" arrivalLane="3o_0" arrivalPos="492.80" arrivalSpeed="11.85" duration="144.00" routeLength="995.90" waitingTime="46.00" waitingCount="3" stopTime="0.00" timeLoss="78.71" rerouteNo="0" devices="tripinfo_EW_181" vType="car" speedFactor="1.08" vaporized=""/>
    <tripinfo id="EW_180" depart="180.00" departLane="4i_0" departPos="4.10" departSpeed="0.00" departDelay="0.00" arrival="329.00" arrivalLane="1o_0" arrivalPos="492.80" arrivalSpeed="10.41" duration="149.00" routeLength="990.53" waitingTime="50.00" waitingCount="4" stopTime="0.00" timeLoss="75.72" rerouteNo="0" devices="tripinfo_EW_180" vType="car" speedFactor="0.97" vaporized=""/>
    <tripinfo id="EW_182" depart="186.00" departLane="4i_0" departPos="4.10" departSpeed="0.00" departDelay="4.00" arrival="329.00" arrivalLane="3o_0" arrivalPos="492.80" arrivalSpeed="11.46" duration="143.00" routeLength="995.90" waitingTime="44.00" waitingCount="3" stopTime="0.00" timeLoss="79.58" rerouteNo="0" devices="tripinfo_EW_182" vType="car" speedFactor="1.12" vaporized=""/>
    <tripinfo id="EW_240" depart="243.00" departLane="4i_0" departPos="4.10" departSpeed="0.00" departDelay="3.00" arrival="333.00" arrivalLane="2o_0" arrivalPos="492.80" arrivalSpeed="12.68" duration="90.00" routeLength="995.70" waitingTime="0.00" waitingCount="0" stopTime="0.00" timeLoss="27.62" rerouteNo="0" devices="tripinfo_EW_240" vType="car" speedFactor="1.15" vaporized=""/>
    <tripinfo id="EW_204" depart="204.00" departLane="4i_0" departPos="4.10" departSpeed="0.00" departDelay="0.00" arrival="338.00" arrivalLane="1o_0" arrivalPos="492.80" arrivalSpeed="9.48" duration="134.00" routeLength="990.53" waitingTime="25.00" waitingCount="3" stopTime="0.00" timeLoss="55.92" rerouteNo="0" devices="tripinfo_EW_204" vType="car" speedFactor="0.91" vaporized=""/>
    <tripinfo id="EW_226" depart="226.00" departLane="4i_0" departPos="4.10" departSpeed="0.00" departDelay="0.00" arrival="340.00" arrivalLane="1o_0" arrivalPos="492.80" arrivalSpeed="11.06" duration="114.00" routeLength="990.53" waitingTime="4.00" waitingCount="2" stopTime="0.00" timeLoss="48.67" rerouteNo="0" devices="tripinfo_EW_226" vType="car" speedFactor="1.09" vaporized=""/>
    <tripinfo id="EW_238" depart="239.00" departLane="4i_0" departPos="4.10" departSpeed="0.00" departDelay="1.00" arrival="342.00" arrivalLane="1o_0" arrivalPos="492.80" arrivalSpeed="9.56" duration="103.00" routeLength="990.53" waitingTime="0.00" waitingCount="0" stopTime="0.00" timeLoss="29.67" rerouteNo="0" devices="tripinfo_EW_238" vType="car" speedFactor="0.97" vaporized=""/>
    <tripinfo id="EW_255" depart="255.00" departLane="4i_0" departPos="4.10" departSpeed="0.00" departDelay="0.00" arrival="347.00" arrivalLane="2o_0" arrivalPos="492.80" arrivalSpeed="9.08" duration="92.00" routeLength="995.70" waitingTime="0.00" waitingCount="0" stopTime="0.00" timeLoss="12.74" rerouteNo="0" devices="tripinfo_EW_255" vType="car" speedFactor="0.89" vaporized=""/>
    <tripinfo id="EW_262" depart="262.00" departLane="4i_0" departPos="4.10" departSpeed="0.00" departDelay="0.00" arrival="348.00" arrivalLane="3o_0" arrivalPos="492.80" arrivalSpeed="9.41" duration="86.00" routeLength="995.90" waitingTime="0.00" waitingCount="0" stopTime="0.00" timeLoss="9.18" rerouteNo="0" devices="tripinfo_EW_262" vType="car" speedFactor="0.92" vaporized=""/>