<?xml version="1.0" encoding="UTF-8"?>

<!-- generated on 2024-05-05 22:34:43 by Eclipse SUMO sumo Version 1.19.0
<configuration xmlns:xsi="http://www.w3.org/2001/XMLSchema-instance" xsi:noNamespaceSchemaLocation="http://sumo.dlr.de/xsd/sumoConfiguration.xsd">

    <input>
        <net-file value="twoone.net.xml"/>
        <route-files value="route_gen.rou.xml"/>
    </input>

    <output>
        <tripinfo-output value="tripinfo_epi319.xml"/>
    </output>

    <report>
        <no-warnings value="true"/>
    </report>

    <traci_server>
        <remote-port value="44709"/>
    </traci_server>

</configuration>
-->

<tripinfos xmlns:xsi="http://www.w3.org/2001/XMLSchema-instance" xsi:noNamespaceSchemaLocation="http://sumo.dlr.de/xsd/tripinfo_file.xsd">
    <tripinfo id="WE_4" depart="4.00" departLane="1i_0" departPos="4.10" departSpeed="0.00" departDelay="0.00" arrival="78.00" arrivalLane="3o_0" arrivalPos="492.80" arrivalSpeed="11.05" duration="74.00" routeLength="990.53" waitingTime="0.00" waitingCount="0" stopTime="0.00" timeLoss="6.95" rerouteNo="0" devices="tripinfo_WE_4" vType="car" speedFactor="1.06" vaporized=""/>
    <tripinfo id="NS_11" depart="11.00" departLane="2i_0" departPos="4.10" departSpeed="0.00" departDelay="0.00" arrival="85.00" arrivalLane="1o_0" arrivalPos="492.80" arrivalSpeed="10.90" duration="74.00" routeLength="995.90" waitingTime="0.00" waitingCount="0" stopTime="0.00" timeLoss="7.96" rerouteNo="0" devices="tripinfo_NS_11" vType="car" speedFactor="1.08" vaporized=""/>
    <tripinfo id="WE_11" depart="11.00" departLane="1i_0" departPos="4.10" departSpeed="0.00" departDelay="0.00" arrival="89.00" arrivalLane="3o_0" arrivalPos="492.80" arrivalSpeed="10.68" duration="78.00" routeLength="990.53" waitingTime="0.00" waitingCount="0" stopTime="0.00" timeLoss="7.58" rerouteNo="0" devices="tripinfo_WE_11" vType="car" speedFactor="1.01" vaporized=""/>
    <tripinfo id="WE_17" depart="17.00" departLane="1i_0" departPos="4.10" departSpeed="0.00" departDelay="0.00" arrival="94.00" arrivalLane="3o_0" arrivalPos="492.80" arrivalSpeed="11.36" duration="77.00" routeLength="990.53" waitingTime="0.00" waitingCount="0" stopTime="0.00" timeLoss="8.02" rerouteNo="0" devices="tripinfo_WE_17" vType="car" speedFactor="1.03" vaporized=""/>
    <tripinfo id="WE_23" depart="23.00" departLane="1i_0" departPos="10.10" departSpeed="0.00" departDelay="0.00" arrival="113.00" arrivalLane="4o_0" arrivalPos="492.80" arrivalSpeed="10.19" duration="90.00" routeLength="989.70" waitingTime="0.00" waitingCount="0" stopTime="0.00" timeLoss="17.00" rerouteNo="0" devices="tripinfo_WE_23" vType="truck" speedFactor="0.97" vaporized=""/>
    <tripinfo id="WE_26" depart="30.00" departLane="1i_0" departPos="4.10" departSpeed="0.00" departDelay="4.00" arrival="115.00" arrivalLane="4o_0" arrivalPos="492.80" arrivalSpeed="11.60" duration="85.00" routeLength="995.70" waitingTime="0.00" waitingCount="0" stopTime="0.00" timeLoss="19.90" rerouteNo="0" devices="tripinfo_WE_26" vType="car" speedFactor="1.09" vaporized=""/>
    <tripinfo id="WE_24" depart="27.00" departLane="1i_0" departPos="4.10" departSpeed="0.00" departDelay="3.00" arrival="122.00" arrivalLane="3o_0" arrivalPos="492.80" arrivalSpeed="8.89" duration="95.00" routeLength="990.53" waitingTime="0.00" waitingCount="0" stopTime="0.00" timeLoss="12.79" rerouteNo="0" devices="tripinfo_WE_24" vType="car" speedFactor="0.86" vaporized=""/>
    <tripinfo id="NS_42" depart="42.00" departLane="2i_0" departPos="4.10" departSpeed="0.00" departDelay="0.00" arrival="131.00" arrivalLane="1o_0" arrivalPos="492.80" arrivalSpeed="8.96" duration="89.00" routeLength="995.90" waitingTime="0.00" waitingCount="0" stopTime="0.00" timeLoss="8.61" rerouteNo="0" devices="tripinfo_NS_42" vType="car" speedFactor="0.88" vaporized=""/>
    <tripinfo id="NS_43" depart="46.00" departLane="2i_0" departPos="10.10" departSpeed="0.00" departDelay="3.00" arrival="131.00" arrivalLane="4o_0" arrivalPos="492.80" arrivalSpeed="10.56" duration="85.00" routeLength="984.53" waitingTime="0.00" waitingCount="0" stopTime="0.00" timeLoss="12.00" rerouteNo="0" devices="tripinfo_NS_43" vType="truck" speedFactor="0.97" vaporized=""/>
    <tripinfo id="WE_44" depart="44.00" departLane="1i_0" departPos="4.10" departSpeed="0.00" departDelay="0.00" arrival="149.00" arrivalLane="4o_0" arrivalPos="492.80" arrivalSpeed="12.64" duration="105.00" routeLength="995.70" waitingTime="31.00" waitingCount="1" stopTime="0.00" timeLoss="43.79" rerouteNo="0" devices="tripinfo_WE_44" vType="car" speedFactor="1.16" vaporized=""/>
    <tripinfo id="NS_75" depart="75.00" departLane="2i_0" departPos="4.10" departSpeed="0.00" departDelay="0.00" arrival="151.00" arrivalLane="4o_0" arrivalPos="492.80" arrivalSpeed="12.25" duration="76.00" routeLength="990.53" waitingTime="2.00" waitingCount="1" stopTime="0.00" timeLoss="15.93" rerouteNo="0" devices="tripinfo_NS_75" vType="car" speedFactor="1.18" vaporized=""/>
    <tripinfo id="NS_71" depart="71.00" departLane="2i_0" departPos="4.10" departSpeed="0.00" departDelay="0.00" arrival="153.00" arrivalLane="1o_0" arrivalPos="492.80" arrivalSpeed="10.08" duration="82.00" routeLength="995.90" waitingTime="0.00" waitingCount="0" stopTime="0.00" timeLoss="7.61" rerouteNo="0" devices="tripinfo_NS_71" vType="car" speedFactor="0.95" vaporized=""/>
    <tripinfo id="EW_7" depart="7.00" departLane="4i_0" departPos="4.10" departSpeed="0.00" departDelay="0.00" arrival="157.00" arrivalLane="1o_0" arrivalPos="492.80" arrivalSpeed="9.44" duration="150.00" routeLength="990.53" waitingTime="61.00" waitingCount="1" stopTime="0.00" timeLoss="74.55" rerouteNo="0" devices="tripinfo_EW_7" vType="car" speedFactor="0.94" vaporized=""/>
    <tripinfo id="EW_18" depart="19.00" departLane="4i_0" departPos="4.10" departSpeed="0.00" departDelay="1.00" arrival="159.00" arrivalLane="1o_0" arrivalPos="492.80" arrivalSpeed="10.45" duration="140.00" routeLength="990.53" waitingTime="50.00" waitingCount="1" stopTime="0.00" timeLoss="72.36" rerouteNo="0" devices="tripinfo_EW_18" vType="car" speedFactor="1.05" vaporized=""/>
    <tripinfo id="EW_38" depart="38.00" departLane="4i_0" departPos="4.10" departSpeed="0.00" departDelay="0.00" arrival="160.00" arrivalLane="1o_0" arrivalPos="492.80" arrivalSpeed="11.57" duration="122.00" routeLength="990.53" waitingTime="40.00" waitingCount="1" stopTime="0.00" timeLoss="59.43" rerouteNo="0" devices="tripinfo_EW_38" vType="car" speedFactor="1.12" vaporized=""/>
    <tripinfo id="WE_45" depart="47.00" departLane="1i_0" departPos="4.10" departSpeed="0.00" departDelay="2.00" arrival="161.00" arrivalLane="2o_0" arrivalPos="492.80" arrivalSpeed="11.11" duration="114.00" routeLength="995.90" waitingTime="24.00" waitingCount="1" stopTime="0.00" timeLoss="44.10" rerouteNo="0" devices="tripinfo_WE_45" vType="car" speedFactor="1.01" vaporized=""/>
    <tripinfo id="EW_28" depart="28.00" departLane="4i_0" departPos="4.10" departSpeed="0.00" departDelay="0.00" arrival="163.00" arrivalLane="2o_0" arrivalPos="492.80" arrivalSpeed="10.18" duration="135.00" routeLength="995.70" waitingTime="47.00" waitingCount="1" stopTime="0.00" timeLoss="66.06" rerouteNo="0" devices="tripinfo_EW_28" vType="car" speedFactor="1.03" vaporized=""/>
    <tripinfo id="EW_17" depart="17.00" departLane="4i_0" departPos="4.10" departSpeed="0.00" departDelay="0.00" arrival="169.00" arrivalLane="3o_0" arrivalPos="492.80" arrivalSpeed="8.82" duration="152.00" routeLength="995.90" waitingTime="51.00" waitingCount="1" stopTime="0.00" timeLoss="66.82" rerouteNo="0" devices="tripinfo_EW_17" vType="car" speedFactor="0.83" vaporized=""/>
    <tripinfo id="NS_76" depart="78.00" departLane="2i_0" departPos="4.10" departSpeed="0.00" departDelay="2.00" arrival="171.00" arrivalLane="3o_0" arrivalPos="492.80" arrivalSpeed="11.97" duration="93.00" routeLength="995.70" waitingTime="4.00" waitingCount="2" stopTime="0.00" timeLoss="31.35" rerouteNo="0" devices="tripinfo_NS_76" vType="car" speedFactor="1.15" vaporized=""/>
    <tripinfo id="EW_40" depart="41.00" departLane="4i_0" departPos="4.10" departSpeed="0.00" departDelay="1.00" arrival="174.00" arrivalLane="2o_0" arrivalPos="492.80" arrivalSpeed="9.77" duration="133.00" routeLength="995.70" waitingTime="34.00" waitingCount="1" stopTime="0.00" timeLoss="56.26" rerouteNo="0" devices="tripinfo_EW_40" vType="car" speedFactor="0.93" vaporized=""/>
    <tripinfo id="EW_43" depart="44.00" departLane="4i_0" departPos="4.10" departSpeed="0.00" departDelay="1.00" arrival="175.00" arrivalLane="3o_0" arrivalPos="492.80" arrivalSpeed="10.45" duration="131.00" routeLength="995.90" waitingTime="33.00" waitingCount="1" stopTime="0.00" timeLoss="55.71" rerouteNo="0" devices="tripinfo_EW_43" vType="car" speedFactor="0.94" vaporized=""/>
    <tripinfo id="EW_47" depart="48.00" departLane="4i_0" departPos="10.10" departSpeed="0.00" departDelay="1.00" arrival="178.00" arrivalLane="3o_0" arrivalPos="492.80" arrivalSpeed="10.61" duration="130.00" routeLength="989.90" waitingTime="23.00" waitingCount="1" stopTime="0.00" timeLoss="57.88" rerouteNo="0" devices="tripinfo_EW_47" vType="truck" speedFactor="0.99" vaporized=""/>
    <tripinfo id="EW_82" depart="82.00" departLane="4i_0" departPos="4.10" departSpeed="0.00" departDelay="0.00" arrival="180.00" arrivalLane="3o_0" arrivalPos="492.80" arrivalSpeed="10.86" duration="98.00" routeLength="995.90" waitingTime="0.00" waitingCount="0" stopTime="0.00" timeLoss="26.69" rerouteNo="0" devices="tripinfo_EW_82" vType="car" speedFactor="0.99" vaporized=""/>
    <tripinfo id="SN_33" depart="33.00" departLane="3i_0" departPos="4.10" departSpeed="0.00" departDelay="0.00" arrival="182.00" arrivalLane="4o_0" arrivalPos="492.80" arrivalSpeed="10.39" duration="149.00" routeLength="995.90" waitingTime="63.00" waitingCount="2" stopTime="0.00" timeLoss="81.31" rerouteNo="0" devices="tripinfo_SN_33" vType="car" speedFactor="1.05" vaporized=""/>
    <tripinfo id="EW_83" depart="85.00" departLane="4i_0" departPos="4.10" departSpeed="0.00" departDelay="2.00" arrival="182.00" arrivalLane="3o_0" arrivalPos="492.80" arrivalSpeed="10.99" duration="97.00" routeLength="995.90" waitingTime="0.00" waitingCount="0" stopTime="0.00" timeLoss="27.22" rerouteNo="0" devices="tripinfo_EW_83" vType="car" speedFactor="1.02" vaporized=""/>
    <tripinfo id="WE_73" depart="73.00" departLane="1i_0" departPos="4.10" departSpeed="0.00" departDelay="0.00" arrival="184.00" arrivalLane="3o_0" arrivalPos="492.80" arrivalSpeed="11.84" duration="111.00" routeLength="990.53" waitingTime="25.00" waitingCount="2" stopTime="0.00" timeLoss="48.30" rerouteNo="0" devices="tripinfo_WE_73" vType="car" speedFactor="1.13" vaporized=""/>
    <tripinfo id="SN_19" depart="19.00" departLane="3i_0" departPos="4.10" departSpeed="0.00" departDelay="0.00" arrival="189.00" arrivalLane="1o_0" arrivalPos="492.80" arrivalSpeed="8.79" duration="170.00" routeLength="995.70" waitingTime="75.00" waitingCount="2" stopTime="0.00" timeLoss="90.46" rerouteNo="0" devices="tripinfo_SN_19" vType="car" speedFactor="0.89" vaporized=""/>
    <tripinfo id="NS_78" depart="82.00" departLane="2i_0" departPos="10.10" departSpeed="0.00" departDelay="4.00" arrival="192.00" arrivalLane="1o_0" arrivalPos="492.80" arrivalSpeed="10.71" duration="110.00" routeLength="989.90" waitingTime="15.00" waitingCount="1" stopTime="0.00" timeLoss="39.34" rerouteNo="0" devices="tripinfo_NS_78" vType="truck" speedFactor="1.00" vaporized=""/>
    <tripinfo id="EW_107" depart="107.00" departLane="4i_0" departPos="4.10" departSpeed="0.00" departDelay="0.00" arrival="192.00" arrivalLane="3o_0" arrivalPos="492.80" arrivalSpeed="10.94" duration="85.00" routeLength="995.90" waitingTime="3.00" waitingCount="2" stopTime="0.00" timeLoss="16.39" rerouteNo="0" devices="tripinfo_EW_107" vType="car" speedFactor="1.04" vaporized=""/>
    <tripinfo id="SN_38" depart="38.00" departLane="3i_0" departPos="4.10" departSpeed="0.00" departDelay="0.00" arrival="194.00" arrivalLane="4o_0" arrivalPos="492.80" arrivalSpeed="10.75" duration="156.00" routeLength="995.90" waitingTime="60.00" waitingCount="4" stopTime="0.00" timeLoss="84.02" rerouteNo="0" devices="tripinfo_SN_38" vType="car" speedFactor="0.99" vaporized=""/>
    <tripinfo id="WE_80" depart="80.00" departLane="1i_0" departPos="4.10" departSpeed="0.00" departDelay="0.00" arrival="194.00" arrivalLane="3o_0" arrivalPos="492.80" arrivalSpeed="11.89" duration="114.00" routeLength="990.53" waitingTime="18.00" waitingCount="1" stopTime="0.00" timeLoss="53.23" rerouteNo="0" devices="tripinfo_WE_80" vType="car" speedFactor="1.17" vaporized=""/>
    <tripinfo id="WE_90" depart="90.00" departLane="1i_0" departPos="4.10" departSpeed="0.00" departDelay="0.00" arrival="197.00" arrivalLane="3o_0" arrivalPos="492.80" arrivalSpeed="11.09" duration="107.00" routeLength="990.53" waitingTime="18.00" waitingCount="1" stopTime="0.00" timeLoss="42.62" rerouteNo="0" devices="tripinfo_WE_90" vType="car" speedFactor="1.10" vaporized=""/>
    <tripinfo id="WE_60" depart="60.00" departLane="1i_0" departPos="4.10" departSpeed="0.00" departDelay="0.00" arrival="198.00" arrivalLane="2o_0" arrivalPos="492.80" arrivalSpeed="9.05" duration="138.00" routeLength="995.90" waitingTime="33.00" waitingCount="2" stopTime="0.00" timeLoss="52.10" rerouteNo="0" devices="tripinfo_WE_60" vType="car" speedFactor="0.83" vaporized=""/>
    <tripinfo id="WE_74" depart="75.00" departLane="1i_0" departPos="4.10" departSpeed="0.00" departDelay="1.00" arrival="200.00" arrivalLane="2o_0" arrivalPos="492.80" arrivalSpeed="9.63" duration="125.00" routeLength="995.90" waitingTime="19.00" waitingCount="1" stopTime="0.00" timeLoss="49.24" rerouteNo="0" devices="tripinfo_WE_74" vType="car" speedFactor="0.93" vaporized=""/>
    <tripinfo id="WE_103" depart="103.00" departLane="1i_0" departPos="4.10" departSpeed="0.00" departDelay="0.00" arrival="209.00" arrivalLane="4o_0" arrivalPos="492.80" arrivalSpeed="11.46" duration="106.00" routeLength="995.70" waitingTime="12.00" waitingCount="2" stopTime="0.00" timeLoss="40.91" rerouteNo="0" devices="tripinfo_WE_103" vType="car" speedFactor="1.09" vaporized=""/>
    <tripinfo id="SN_44" depart="44.00" departLane="3i_0" departPos="4.10" departSpeed="0.00" departDelay="0.00" arrival="210.00" arrivalLane="2o_0" arrivalPos="492.80" arrivalSpeed="10.37" duration="166.00" routeLength="990.53" waitingTime="66.00" waitingCount="5" stopTime="0.00" timeLoss="96.35" rerouteNo="0" devices="tripinfo_SN_44" vType="car" speedFactor="1.02" vaporized=""/>
    <tripinfo id="NS_84" depart="86.00" departLane="2i_0" departPos="4.10" departSpeed="0.00" departDelay="2.00" arrival="212.00" arrivalLane="3o_0" arrivalPos="492.80" arrivalSpeed="10.51" duration="126.00" routeLength="995.70" waitingTime="27.00" waitingCount="2" stopTime="0.00" timeLoss="52.84" rerouteNo="0" devices="tripinfo_NS_84" vType="car" speedFactor="0.97" vaporized=""/>
    <tripinfo id="EW_133" depart="133.00" departLane="4i_0" departPos="4.10" departSpeed="0.00" departDelay="0.00" arrival="213.00" arrivalLane="3o_0" arrivalPos="492.80" arrivalSpeed="12.03" duration="80.00" routeLength="995.90" waitingTime="1.00" waitingCount="1" stopTime="0.00" timeLoss="19.63" rerouteNo="0" devices="tripinfo_EW_133" vType="car" speedFactor="1.17" vaporized=""/>
    <tripinfo id="NS_87" depart="89.00" departLane="2i_0" departPos="4.10" departSpeed="0.00" departDelay="2.00" arrival="215.00" arrivalLane="3o_0" arrivalPos="492.80" arrivalSpeed="13.07" duration="126.00" routeLength="995.70" waitingTime="27.00" waitingCount="3" stopTime="0.00" timeLoss="65.80" rerouteNo="0" devices="tripinfo_NS_87" vType="car" speedFactor="1.18" vaporized=""/>
    <tripinfo id="NS_95" depart="95.00" departLane="2i_0" departPos="4.10" departSpeed="0.00" departDelay="0.00" arrival="220.00" arrivalLane="3o_0" arrivalPos="492.80" arrivalSpeed="10.95" duration="125.00" routeLength="995.70" waitingTime="25.00" waitingCount="3" stopTime="0.00" timeLoss="56.36" rerouteNo="0" devices="tripinfo_NS_95" vType="car" speedFactor="1.03" vaporized=""/>
    <tripinfo id="SN_56" depart="56.00" departLane="3i_0" departPos="4.10" departSpeed="0.00" departDelay="0.00" arrival="221.00" arrivalLane="4o_0" arrivalPos="492.80" arrivalSpeed="9.64" duration="165.00" routeLength="995.90" waitingTime="50.00" waitingCount="4" stopTime="0.00" timeLoss="85.38" rerouteNo="0" devices="tripinfo_SN_56" vType="car" speedFactor="0.89" vaporized=""/>
    <tripinfo id="WE_110" depart="110.00" departLane="1i_0" departPos="4.10" departSpeed="0.00" departDelay="0.00" arrival="223.00" arrivalLane="4o_0" arrivalPos="492.80" arrivalSpeed="11.72" duration="113.00" routeLength="995.70" waitingTime="11.00" waitingCount="3" stopTime="0.00" timeLoss="47.52" rerouteNo="0" devices="tripinfo_WE_110" vType="car" speedFactor="1.09" vaporized=""/>
    <tripinfo id="EW_135" depart="136.00" departLane="4i_0" departPos="4.10" departSpeed="0.00" departDelay="1.00" arrival="223.00" arrivalLane="3o_0" arrivalPos="492.80" arrivalSpeed="11.81" duration="87.00" routeLength="995.90" waitingTime="3.00" waitingCount="1" stopTime="0.00" timeLoss="21.78" rerouteNo="0" devices="tripinfo_EW_135" vType="car" speedFactor="1.10" vaporized=""/>
    <tripinfo id="WE_116" depart="116.00" departLane="1i_0" departPos="4.10" departSpeed="0.00" departDelay="0.00" arrival="230.00" arrivalLane="3o_0" arrivalPos="492.80" arrivalSpeed="10.80" duration="114.00" routeLength="990.53" waitingTime="12.00" waitingCount="3" stopTime="0.00" timeLoss="43.62" rerouteNo="0" devices="tripinfo_WE_116" vType="car" speedFactor="1.00" vaporized=""/>
    <tripinfo id="EW_139" depart="139.00" departLane="4i_0" departPos="4.10" departSpeed="0.00" departDelay="0.00" arrival="233.00" arrivalLane="3o_0" arrivalPos="492.80" arrivalSpeed="10.92" duration="94.00" routeLength="995.90" waitingTime="3.00" waitingCount="2" stopTime="0.00" timeLoss="22.62" rerouteNo="0" devices="tripinfo_EW_139" vType="car" speedFactor="1.00" vaporized=""/>
    <tripinfo id="NS_117" depart="117.00" departLane="2i_0" departPos="4.10" departSpeed="0.00" departDelay="0.00" arrival="234.00" arrivalLane="1o_0" arrivalPos="492.80" arrivalSpeed="8.88" duration="117.00" routeLength="995.90" waitingTime="12.00" waitingCount="2" stopTime="0.00" timeLoss="38.09" rerouteNo="0" devices="tripinfo_NS_117" vType="car" speedFactor="0.90" vaporized=""/>
    <tripinfo id="SN_61" depart="61.00" departLane="3i_0" departPos="4.10" departSpeed="0.00" departDelay="0.00" arrival="238.00" arrivalLane="4o_0" arrivalPos="492.80" arrivalSpeed="8.83" duration="177.00" routeLength="995.90" waitingTime="48.00" waitingCount="6" stopTime="0.00" timeLoss="96.17" rerouteNo="0" devices="tripinfo_SN_61" vType="car" speedFactor="0.87" vaporized=""/>
    <tripinfo id="SN_66" depart="66.00" departLane="3i_0" departPos="4.10" departSpeed="0.00" departDelay="0.00" arrival="240.00" arrivalLane="4o_0" arrivalPos="492.80" arrivalSpeed="10.17" duration="174.00" routeLength="995.90" waitingTime="46.00" waitingCount="5" stopTime="0.00" timeLoss="96.87" rerouteNo="0" devices="tripinfo_SN_66" vType="car" speedFactor="0.92" vaporized=""/>
    <tripinfo id="WE_118" depart="119.00" departLane="1i_0" departPos="4.10" departSpeed="0.00" departDelay="1.00" arrival="242.00" arrivalLane="3o_0" arrivalPos="492.80" arrivalSpeed="9.08" duration="123.00" routeLength="990.53" waitingTime="10.00" waitingCount="3" stopTime="0.00" timeLoss="42.97" rerouteNo="0" devices="tripinfo_WE_118" vType="car" speedFactor="0.88" vaporized=""/>
    <tripinfo id="NS_128" depart="128.00" departLane="2i_0" departPos="4.10" departSpeed="0.00" departDelay="0.00" arrival="244.00" arrivalLane="4o_0" arrivalPos="492.80" arrivalSpeed="9.22" duration="116.00" routeLength="990.53" waitingTime="3.00" waitingCount="2" stopTime="0.00" timeLoss="33.39" rerouteNo="0" devices="tripinfo_NS_128" vType="car" speedFactor="0.85" vaporized=""/>
    <tripinfo id="EW_143" depart="143.00" departLane="4i_0" departPos="4.10" departSpeed="0.00" departDelay="0.00" arrival="244.00" arrivalLane="3o_0" arrivalPos="492.80" arrivalSpeed="10.76" duration="101.00" routeLength="995.90" waitingTime="2.00" waitingCount="1" stopTime="0.00" timeLoss="31.67" rerouteNo="0" devices="tripinfo_EW_143" vType="car" speedFactor="1.02" vaporized=""/>
    <tripinfo id="SN_94" depart="94.00" departLane="3i_0" departPos="4.10" departSpeed="0.00" departDelay="0.00" arrival="246.00" arrivalLane="1o_0" arrivalPos="492.80" arrivalSpeed="9.02" duration="152.00" routeLength="995.70" waitingTime="22.00" waitingCount="5" stopTime="0.00" timeLoss="73.14" rerouteNo="0" devices="tripinfo_SN_94" vType="car" speedFactor="0.90" vaporized=""/>
    <tripinfo id="WE_141" depart="141.00" departLane="1i_0" departPos="4.10" departSpeed="0.00" departDelay="0.00" arrival="247.00" arrivalLane="3o_0" arrivalPos="492.80" arrivalSpeed="9.91" duration="106.00" routeLength="990.53" waitingTime="4.00" waitingCount="1" stopTime="0.00" timeLoss="27.06" rerouteNo="0" devices="tripinfo_WE_141" vType="car" speedFactor="0.90" vaporized=""/>
    <tripinfo id="NS_137" depart="137.00" departLane="2i_0" departPos="4.10" departSpeed="0.00" departDelay="0.00" arrival="248.00" arrivalLane="1o_0" arrivalPos="492.80" arrivalSpeed="9.96" duration="111.00" routeLength="995.90" waitingTime="3.00" waitingCount="2" stopTime="0.00" timeLoss="39.92" rerouteNo="0" devices="tripinfo_NS_137" vType="car" speedFactor="1.00" vaporized=""/>
    <tripinfo id="NS_157" depart="157.00" departLane="2i_0" departPos="4.10" departSpeed="0.00" departDelay="0.00" arrival="248.00" arrivalLane="3o_0" arrivalPos="492.80" arrivalSpeed="11.37" duration="91.00" routeLength="995.70" waitingTime="1.00" waitingCount="1" stopTime="0.00" timeLoss="27.81" rerouteNo="0" devices="tripinfo_NS_157" vType="car" speedFactor="1.12" vaporized=""/>
    <tripinfo id="NS_152" depart="152.00" departLane="2i_0" departPos="4.10" departSpeed="0.00" departDelay="0.00" arrival="249.00" arrivalLane="1o_0" arrivalPos="492.80" arrivalSpeed="11.57" duration="97.00" routeLength="995.90" waitingTime="1.00" waitingCount="1" stopTime="0.00" timeLoss="31.72" rerouteNo="0" devices="tripinfo_NS_152" vType="car" speedFactor="1.08" vaporized=""/>
    <tripinfo id="WE_160" depart="160.00" departLane="1i_0" departPos="4.10" departSpeed="0.00" departDelay="0.00" arrival="250.00" arrivalLane="4o_0" arrivalPos="492.80" arrivalSpeed="11.05" duration="90.00" routeLength="995.70" waitingTime="4.00" waitingCount="1" stopTime="0.00" timeLoss="20.31" rerouteNo="0" devices="tripinfo_WE_160" vType="car" speedFactor="1.02" vaporized=""/>
    <tripinfo id="EW_165" depart="165.00" departLane="4i_0" departPos="4.10" departSpeed="0.00" departDelay="0.00" arrival="255.00" arrivalLane="1o_0" arrivalPos="492.80" arrivalSpeed="8.60" duration="90.00" routeLength="990.53" waitingTime="0.00" waitingCount="0" stopTime="0.00" timeLoss="10.05" rerouteNo="0" devices="tripinfo_EW_165" vType="car" speedFactor="0.88" vaporized=""/>
    <tripinfo id="SN_95" depart="97.00" departLane="3i_0" departPos="4.10" departSpeed="0.00" departDelay="2.00" arrival="258.00" arrivalLane="4o_0" arrivalPos="492.80" arrivalSpeed="10.49" duration="161.00" routeLength="995.90" waitingTime="28.00" waitingCount="8" stopTime="0.00" timeLoss="86.52" rerouteNo="0" devices="tripinfo_SN_95" vType="car" speedFactor="0.96" vaporized=""/>
    <tripinfo id="EW_167" depart="168.00" departLane="4i_0" departPos="4.10" departSpeed="0.00" departDelay="1.00" arrival="260.00" arrivalLane="3o_0" arrivalPos="492.80" arrivalSpeed="8.96" duration="92.00" routeLength="995.90" waitingTime="0.00" waitingCount="0" stopTime="0.00" timeLoss="14.11" rerouteNo="0" devices="tripinfo_EW_167" vType="car" speedFactor="0.91" vaporized=""/>
    <tripinfo id="WE_164" depart="164.00" departLane="1i_0" departPos="4.10" departSpeed="0.00" departDelay="0.00" arrival="261.00" arrivalLane="3o_0" arrivalPos="492.80" arrivalSpeed="10.04" duration="97.00" routeLength="990.53" waitingTime="6.00" waitingCount="2" stopTime="0.00" timeLoss="22.05" rerouteNo="0" devices="tripinfo_WE_164" vType="car" speedFactor="0.94" vaporized=""/>
    <tripinfo id="SN_107" depart="107.00" departLane="3i_0" departPos="4.10" departSpeed="0.00" departDelay="0.00" arrival="262.00" arrivalLane="4o_0" arrivalPos="492.80" arrivalSpeed="10.91" duration="155.00" routeLength="995.90" waitingTime="24.00" waitingCount="5" stopTime="0.00" timeLoss="86.78" rerouteNo="0" devices="tripinfo_SN_107" vType="car" speedFactor="1.04" vaporized=""/>
    <tripinfo id="NS_163" depart="163.00" departLane="2i_0" departPos="4.10" departSpeed="0.00" departDelay="0.00" arrival="263.00" arrivalLane="3o_0" arrivalPos="492.80" arrivalSpeed="10.37" duration="100.00" routeLength="995.70" waitingTime="3.00" waitingCount="3" stopTime="0.00" timeLoss="28.11" rerouteNo="0" devices="tripinfo_NS_163" vType="car" speedFactor="0.99" vaporized=""/>
    <tripinfo id="EW_176" depart="176.00" departLane="4i_0" departPos="4.10" departSpeed="0.00" departDelay="0.00" arrival="265.00" arrivalLane="2o_0" arrivalPos="492.80" arrivalSpeed="10.75" duration="89.00" routeLength="995.70" waitingTime="5.00" waitingCount="2" stopTime="0.00" timeLoss="19.89" rerouteNo="0" devices="tripinfo_EW_176" vType="car" speedFactor="1.02" vaporized=""/>
    <tripinfo id="EW_185" depart="185.00" departLane="4i_0" departPos="4.10" departSpeed="0.00" departDelay="0.00" arrival="267.00" arrivalLane="1o_0" arrivalPos="492.80" arrivalSpeed="11.31" duration="82.00" routeLength="990.53" waitingTime="0.00" waitingCount="0" stopTime="0.00" timeLoss="15.01" rerouteNo="0" devices="tripinfo_EW_185" vType="car" speedFactor="1.06" vaporized=""/>
    <tripinfo id="WE_182" depart="182.00" departLane="1i_0" departPos="4.10" departSpeed="0.00" departDelay="0.00" arrival="270.00" arrivalLane="2o_0" arrivalPos="492.80" arrivalSpeed="9.58" duration="88.00" routeLength="995.90" waitingTime="2.00" waitingCount="1" stopTime="0.00" timeLoss="14.95" rerouteNo="0" devices="tripinfo_WE_182" vType="car" speedFactor="0.97" vaporized=""/>
    <tripinfo id="NS_176" depart="176.00" departLane="2i_0" departPos="4.10" departSpeed="0.00" departDelay="0.00" arrival="271.00" arrivalLane="3o_0" arrivalPos="492.80" arrivalSpeed="10.51" duration="95.00" routeLength="995.70" waitingTime="1.00" waitingCount="1" stopTime="0.00" timeLoss="25.69" rerouteNo="0" devices="tripinfo_NS_176" vType="car" speedFactor="1.02" vaporized=""/>
    <tripinfo id="NS_165" depart="166.00" departLane="2i_0" departPos="4.10" departSpeed="0.00" departDelay="1.00" arrival="272.00" arrivalLane="4o_0" arrivalPos="492.80" arrivalSpeed="9.30" duration="106.00" routeLength="990.53" waitingTime="3.00" waitingCount="2" stopTime="0.00" timeLoss="27.89" rerouteNo="0" devices="tripinfo_NS_165" vType="car" speedFactor="0.91" vaporized=""/>
    <tripinfo id="WE_184" depart="185.00" departLane="1i_0" departPos="4.10" departSpeed="0.00" departDelay="1.00" arrival="278.00" arrivalLane="4o_0" arrivalPos="492.80" arrivalSpeed="9.36" duration="93.00" routeLength="995.70" waitingTime="0.00" waitingCount="0" stopTime="0.00" timeLoss="17.40" rerouteNo="0" devices="tripinfo_WE_184" vType="car" speedFactor="0.94" vaporized=""/>
    <tripinfo id="NS_185" depart="185.00" departLane="2i_0" departPos="4.10" departSpeed="0.00" departDelay="0.00" arrival="279.00" arrivalLane="1o_0" arrivalPos="492.80" arrivalSpeed="10.03" duration="94.00" routeLength="995.90" waitingTime="1.00" waitingCount="1" stopTime="0.00" timeLoss="19.77" rerouteNo="0" devices="tripinfo_NS_185" vType="car" speedFactor="0.96" vaporized=""/>
    <tripinfo id="NS_194" depart="194.00" departLane="2i_0" departPos="4.10" departSpeed="0.00" departDelay="0.00" arrival="279.00" arrivalLane="3o_0" arrivalPos="492.80" arrivalSpeed="11.46" duration="85.00" routeLength="995.70" waitingTime="0.00" waitingCount="0" stopTime="0.00" timeLoss="19.68" rerouteNo="0" devices="tripinfo_NS_194" vType="car" speedFactor="1.09" vaporized=""/>
    <tripinfo id="NS_188" depart="188.00" departLane="2i_0" departPos="4.10" departSpeed="0.00" departDelay="0.00" arrival="281.00" arrivalLane="1o_0" arrivalPos="492.80" arrivalSpeed="10.93" duration="93.00" routeLength="995.90" waitingTime="1.00" waitingCount="1" stopTime="0.00" timeLoss="24.06" rerouteNo="0" devices="tripinfo_NS_188" vType="car" speedFactor="1.03" vaporized=""/>
    <tripinfo id="NS_192" depart="192.00" departLane="2i_0" departPos="4.10" departSpeed="0.00" departDelay="0.00" arrival="281.00" arrivalLane="4o_0" arrivalPos="492.80" arrivalSpeed="10.26" duration="89.00" routeLength="990.53" waitingTime="0.00" waitingCount="0" stopTime="0.00" timeLoss="18.73" rerouteNo="0" devices="tripinfo_NS_192" vType="car" speedFactor="1.01" vaporized=""/>
    <tripinfo id="NS_204" depart="204.00" departLane="2i_0" departPos="4.10" departSpeed="0.00" departDelay="0.00" arrival="281.00" arrivalLane="3o_0" arrivalPos="492.80" arrivalSpeed="12.19" duration="77.00" routeLength="995.70" waitingTime="1.00" waitingCount="1" stopTime="0.00" timeLoss="15.61" rerouteNo="0" devices="tripinfo_NS_204" vType="car" speedFactor="1.15" vaporized=""/>
    <tripinfo id="SN_125" depart="125.00" departLane="3i_0" departPos="4.10" departSpeed="0.00" departDelay="0.00" arrival="282.00" arrivalLane="2o_0" arrivalPos="492.80" arrivalSpeed="8.34" duration="157.00" routeLength="990.53" waitingTime="21.00" waitingCount="7" stopTime="0.00" timeLoss="73.92" rerouteNo="0" devices="tripinfo_SN_125" vType="car" speedFactor="0.85" vaporized=""/>
    <tripinfo id="SN_133" depart="133.00" departLane="3i_0" departPos="4.10" departSpeed="0.00" departDelay="0.00" arrival="284.00" arrivalLane="2o_0" arrivalPos="492.80" arrivalSpeed="10.85" duration="151.00" routeLength="990.53" waitingTime="18.00" waitingCount="7" stopTime="0.00" timeLoss="81.18" rerouteNo="0" devices="tripinfo_SN_133" vType="car" speedFactor="1.02" vaporized=""/>