<?xml version="1.0" encoding="UTF-8"?>

<!-- generated on 2024-05-05 22:01:05 by Eclipse SUMO sumo Version 1.19.0
<configuration xmlns:xsi="http://www.w3.org/2001/XMLSchema-instance" xsi:noNamespaceSchemaLocation="http://sumo.dlr.de/xsd/sumoConfiguration.xsd">

    <input>
        <net-file value="twoone.net.xml"/>
        <route-files value="route_gen.rou.xml"/>
    </input>

    <output>
        <tripinfo-output value="tripinfo_epi173.xml"/>
    </output>

    <report>
        <no-warnings value="true"/>
    </report>

    <traci_server>
        <remote-port value="48201"/>
    </traci_server>

</configuration>
-->

<tripinfos xmlns:xsi="http://www.w3.org/2001/XMLSchema-instance" xsi:noNamespaceSchemaLocation="http://sumo.dlr.de/xsd/tripinfo_file.xsd">
    <tripinfo id="SN_2" depart="2.00" departLane="3i_0" departPos="4.10" departSpeed="0.00" departDelay="0.00" arrival="83.00" arrivalLane="1o_0" arrivalPos="492.80" arrivalSpeed="11.01" duration="81.00" routeLength="995.70" waitingTime="1.00" waitingCount="1" stopTime="0.00" timeLoss="14.01" rerouteNo="0" devices="tripinfo_SN_2" vType="car" speedFactor="1.06" vaporized=""/>
    <tripinfo id="WE_15" depart="15.00" departLane="1i_0" departPos="4.10" departSpeed="0.00" departDelay="0.00" arrival="91.00" arrivalLane="2o_0" arrivalPos="492.80" arrivalSpeed="10.95" duration="76.00" routeLength="995.90" waitingTime="0.00" waitingCount="0" stopTime="0.00" timeLoss="7.26" rerouteNo="0" devices="tripinfo_WE_15" vType="car" speedFactor="1.03" vaporized=""/>
    <tripinfo id="SN_12" depart="12.00" departLane="3i_0" departPos="4.10" departSpeed="0.00" departDelay="0.00" arrival="98.00" arrivalLane="2o_0" arrivalPos="492.80" arrivalSpeed="10.62" duration="86.00" routeLength="990.53" waitingTime="3.00" waitingCount="1" stopTime="0.00" timeLoss="15.86" rerouteNo="0" devices="tripinfo_SN_12" vType="car" speedFactor="1.01" vaporized=""/>
    <tripinfo id="NS_21" depart="21.00" departLane="2i_0" departPos="4.10" departSpeed="0.00" departDelay="0.00" arrival="108.00" arrivalLane="3o_0" arrivalPos="492.80" arrivalSpeed="9.53" duration="87.00" routeLength="995.70" waitingTime="0.00" waitingCount="0" stopTime="0.00" timeLoss="11.59" rerouteNo="0" devices="tripinfo_NS_21" vType="car" speedFactor="0.94" vaporized=""/>
    <tripinfo id="WE_21" depart="21.00" departLane="1i_0" departPos="4.10" departSpeed="0.00" departDelay="0.00" arrival="109.00" arrivalLane="2o_0" arrivalPos="492.80" arrivalSpeed="9.01" duration="88.00" routeLength="995.90" waitingTime="0.00" waitingCount="0" stopTime="0.00" timeLoss="7.37" rerouteNo="0" devices="tripinfo_WE_21" vType="car" speedFactor="0.89" vaporized=""/>
    <tripinfo id="NS_22" depart="24.00" departLane="2i_0" departPos="4.10" departSpeed="0.00" departDelay="2.00" arrival="116.00" arrivalLane="3o_0" arrivalPos="492.80" arrivalSpeed="9.11" duration="92.00" routeLength="995.70" waitingTime="0.00" waitingCount="0" stopTime="0.00" timeLoss="9.41" rerouteNo="0" devices="tripinfo_NS_22" vType="car" speedFactor="0.86" vaporized=""/>
    <tripinfo id="NS_27" depart="27.00" departLane="2i_0" departPos="4.10" departSpeed="0.00" departDelay="0.00" arrival="118.00" arrivalLane="3o_0" arrivalPos="492.80" arrivalSpeed="10.34" duration="91.00" routeLength="995.70" waitingTime="0.00" waitingCount="0" stopTime="0.00" timeLoss="21.84" rerouteNo="0" devices="tripinfo_NS_27" vType="car" speedFactor="1.03" vaporized=""/>
    <tripinfo id="WE_31" depart="31.00" departLane="1i_0" departPos="4.10" departSpeed="0.00" departDelay="0.00" arrival="118.00" arrivalLane="4o_0" arrivalPos="492.80" arrivalSpeed="11.50" duration="87.00" routeLength="995.70" waitingTime="6.00" waitingCount="1" stopTime="0.00" timeLoss="19.55" rerouteNo="0" devices="tripinfo_WE_31" vType="car" speedFactor="1.05" vaporized=""/>
    <tripinfo id="SN_13" depart="15.00" departLane="3i_0" departPos="4.10" departSpeed="0.00" departDelay="2.00" arrival="120.00" arrivalLane="4o_0" arrivalPos="492.80" arrivalSpeed="11.07" duration="105.00" routeLength="995.90" waitingTime="21.00" waitingCount="3" stopTime="0.00" timeLoss="39.53" rerouteNo="0" devices="tripinfo_SN_13" vType="car" speedFactor="1.08" vaporized=""/>
    <tripinfo id="NS_31" depart="31.00" departLane="2i_0" departPos="4.10" departSpeed="0.00" departDelay="0.00" arrival="120.00" arrivalLane="3o_0" arrivalPos="492.80" arrivalSpeed="12.15" duration="89.00" routeLength="995.70" waitingTime="4.00" waitingCount="1" stopTime="0.00" timeLoss="25.32" rerouteNo="0" devices="tripinfo_NS_31" vType="car" speedFactor="1.12" vaporized=""/>
    <tripinfo id="EW_3" depart="3.00" departLane="4i_0" departPos="10.10" departSpeed="0.00" departDelay="0.00" arrival="124.00" arrivalLane="1o_0" arrivalPos="492.80" arrivalSpeed="10.67" duration="121.00" routeLength="984.53" waitingTime="27.00" waitingCount="2" stopTime="0.00" timeLoss="48.59" rerouteNo="0" devices="tripinfo_EW_3" vType="truck" speedFactor="0.97" vaporized=""/>
    <tripinfo id="NS_39" depart="39.00" departLane="2i_0" departPos="10.10" departSpeed="0.00" departDelay="0.00" arrival="126.00" arrivalLane="1o_0" arrivalPos="492.80" arrivalSpeed="11.49" duration="87.00" routeLength="989.90" waitingTime="0.00" waitingCount="0" stopTime="0.00" timeLoss="20.60" rerouteNo="0" devices="tripinfo_NS_39" vType="truck" speedFactor="1.08" vaporized=""/>
    <tripinfo id="WE_32" depart="33.00" departLane="1i_0" departPos="4.10" departSpeed="0.00" departDelay="1.00" arrival="128.00" arrivalLane="3o_0" arrivalPos="492.80" arrivalSpeed="9.58" duration="95.00" routeLength="990.53" waitingTime="1.00" waitingCount="1" stopTime="0.00" timeLoss="18.96" rerouteNo="0" devices="tripinfo_WE_32" vType="car" speedFactor="0.93" vaporized=""/>
    <tripinfo id="WE_44" depart="44.00" departLane="1i_0" departPos="4.10" departSpeed="0.00" departDelay="0.00" arrival="130.00" arrivalLane="3o_0" arrivalPos="492.80" arrivalSpeed="10.97" duration="86.00" routeLength="990.53" waitingTime="0.00" waitingCount="0" stopTime="0.00" timeLoss="15.91" rerouteNo="0" devices="tripinfo_WE_44" vType="car" speedFactor="1.01" vaporized=""/>
    <tripinfo id="WE_33" depart="36.00" departLane="1i_0" departPos="4.10" departSpeed="0.00" departDelay="3.00" arrival="134.00" arrivalLane="2o_0" arrivalPos="492.80" arrivalSpeed="9.25" duration="98.00" routeLength="995.90" waitingTime="0.00" waitingCount="0" stopTime="0.00" timeLoss="16.94" rerouteNo="0" devices="tripinfo_WE_33" vType="car" speedFactor="0.88" vaporized=""/>
    <tripinfo id="EW_19" depart="19.00" departLane="4i_0" departPos="4.10" departSpeed="0.00" departDelay="0.00" arrival="135.00" arrivalLane="2o_0" arrivalPos="492.80" arrivalSpeed="11.29" duration="116.00" routeLength="995.70" waitingTime="21.00" waitingCount="2" stopTime="0.00" timeLoss="48.42" rerouteNo="0" devices="tripinfo_EW_19" vType="car" speedFactor="1.05" vaporized=""/>
    <tripinfo id="WE_47" depart="47.00" departLane="1i_0" departPos="4.10" departSpeed="0.00" departDelay="0.00" arrival="137.00" arrivalLane="2o_0" arrivalPos="492.80" arrivalSpeed="10.32" duration="90.00" routeLength="995.90" waitingTime="0.00" waitingCount="0" stopTime="0.00" timeLoss="17.59" rerouteNo="0" devices="tripinfo_WE_47" vType="car" speedFactor="0.97" vaporized=""/>
    <tripinfo id="SN_17" depart="18.00" departLane="3i_0" departPos="4.10" departSpeed="0.00" departDelay="1.00" arrival="141.00" arrivalLane="1o_0" arrivalPos="492.80" arrivalSpeed="8.77" duration="123.00" routeLength="995.70" waitingTime="18.00" waitingCount="2" stopTime="0.00" timeLoss="37.62" rerouteNo="0" devices="tripinfo_SN_17" vType="car" speedFactor="0.83" vaporized=""/>
    <tripinfo id="NS_58" depart="58.00" departLane="2i_0" departPos="4.10" departSpeed="0.00" departDelay="0.00" arrival="147.00" arrivalLane="1o_0" arrivalPos="492.80" arrivalSpeed="9.69" duration="89.00" routeLength="995.90" waitingTime="0.00" waitingCount="0" stopTime="0.00" timeLoss="8.05" rerouteNo="0" devices="tripinfo_NS_58" vType="car" speedFactor="0.87" vaporized=""/>
    <tripinfo id="WE_60" depart="60.00" departLane="1i_0" departPos="4.10" departSpeed="0.00" departDelay="0.00" arrival="147.00" arrivalLane="4o_0" arrivalPos="492.80" arrivalSpeed="9.97" duration="87.00" routeLength="995.70" waitingTime="0.00" waitingCount="0" stopTime="0.00" timeLoss="9.34" rerouteNo="0" devices="tripinfo_WE_60" vType="car" speedFactor="0.92" vaporized=""/>
    <tripinfo id="SN_31" depart="31.00" departLane="3i_0" departPos="4.10" departSpeed="0.00" departDelay="0.00" arrival="166.00" arrivalLane="2o_0" arrivalPos="492.80" arrivalSpeed="10.01" duration="135.00" routeLength="990.53" waitingTime="40.00" waitingCount="3" stopTime="0.00" timeLoss="63.62" rerouteNo="0" devices="tripinfo_SN_31" vType="car" speedFactor="0.99" vaporized=""/>
    <tripinfo id="NS_73" depart="73.00" departLane="2i_0" departPos="4.10" departSpeed="0.00" departDelay="0.00" arrival="167.00" arrivalLane="3o_0" arrivalPos="492.80" arrivalSpeed="9.58" duration="94.00" routeLength="995.70" waitingTime="2.00" waitingCount="1" stopTime="0.00" timeLoss="17.59" rerouteNo="0" devices="tripinfo_NS_73" vType="car" speedFactor="0.93" vaporized=""/>
    <tripinfo id="EW_25" depart="25.00" departLane="4i_0" departPos="4.10" departSpeed="0.00" departDelay="0.00" arrival="168.00" arrivalLane="2o_0" arrivalPos="492.80" arrivalSpeed="10.98" duration="143.00" routeLength="995.70" waitingTime="49.00" waitingCount="3" stopTime="0.00" timeLoss="77.50" rerouteNo="0" devices="tripinfo_EW_25" vType="car" speedFactor="1.09" vaporized=""/>
    <tripinfo id="WE_79" depart="79.00" departLane="1i_0" departPos="4.10" departSpeed="0.00" departDelay="0.00" arrival="168.00" arrivalLane="3o_0" arrivalPos="492.80" arrivalSpeed="12.12" duration="89.00" routeLength="990.53" waitingTime="5.00" waitingCount="1" stopTime="0.00" timeLoss="29.42" rerouteNo="0" devices="tripinfo_WE_79" vType="car" speedFactor="1.18" vaporized=""/>
    <tripinfo id="WE_70" depart="70.00" departLane="1i_0" departPos="4.10" departSpeed="0.00" departDelay="0.00" arrival="169.00" arrivalLane="4o_0" arrivalPos="492.80" arrivalSpeed="10.45" duration="99.00" routeLength="995.70" waitingTime="9.00" waitingCount="1" stopTime="0.00" timeLoss="23.73" rerouteNo="0" devices="tripinfo_WE_70" vType="car" speedFactor="0.95" vaporized=""/>
    <tripinfo id="WE_80" depart="83.00" departLane="1i_0" departPos="4.10" departSpeed="0.00" departDelay="3.00" arrival="170.00" arrivalLane="3o_0" arrivalPos="492.80" arrivalSpeed="12.67" duration="87.00" routeLength="990.53" waitingTime="4.00" waitingCount="1" stopTime="0.00" timeLoss="25.92" rerouteNo="0" devices="tripinfo_WE_80" vType="car" speedFactor="1.15" vaporized=""/>
    <tripinfo id="WE_90" depart="90.00" departLane="1i_0" departPos="4.10" departSpeed="0.00" departDelay="0.00" arrival="173.00" arrivalLane="4o_0" arrivalPos="492.80" arrivalSpeed="11.27" duration="83.00" routeLength="995.70" waitingTime="0.00" waitingCount="0" stopTime="0.00" timeLoss="13.23" rerouteNo="0" devices="tripinfo_WE_90" vType="car" speedFactor="1.02" vaporized=""/>
    <tripinfo id="EW_36" depart="36.00" departLane="4i_0" departPos="10.10" departSpeed="0.00" departDelay="0.00" arrival="175.00" arrivalLane="1o_0" arrivalPos="492.80" arrivalSpeed="10.65" duration="139.00" routeLength="984.53" waitingTime="30.00" waitingCount="1" stopTime="0.00" timeLoss="66.70" rerouteNo="0" devices="tripinfo_EW_36" vType="truck" speedFactor="0.97" vaporized=""/>
    <tripinfo id="SN_50" depart="50.00" departLane="3i_0" departPos="10.10" departSpeed="0.00" departDelay="0.00" arrival="180.00" arrivalLane="4o_0" arrivalPos="492.80" arrivalSpeed="10.08" duration="130.00" routeLength="989.90" waitingTime="29.00" waitingCount="3" stopTime="0.00" timeLoss="55.59" rerouteNo="0" devices="tripinfo_SN_50" vType="truck" speedFactor="0.94" vaporized=""/>
    <tripinfo id="WE_99" depart="99.00" departLane="1i_0" departPos="4.10" departSpeed="0.00" departDelay="0.00" arrival="181.00" arrivalLane="2o_0" arrivalPos="492.80" arrivalSpeed="9.72" duration="82.00" routeLength="995.90" waitingTime="0.00" waitingCount="0" stopTime="0.00" timeLoss="9.38" rerouteNo="0" devices="tripinfo_WE_99" vType="car" speedFactor="0.97" vaporized=""/>
    <tripinfo id="NS_101" depart="101.00" departLane="2i_0" departPos="4.10" departSpeed="0.00" departDelay="0.00" arrival="182.00" arrivalLane="4o_0" arrivalPos="492.80" arrivalSpeed="11.90" duration="81.00" routeLength="990.53" waitingTime="0.00" waitingCount="0" stopTime="0.00" timeLoss="21.44" rerouteNo="0" devices="tripinfo_NS_101" vType="car" speedFactor="1.18" vaporized=""/>
    <tripinfo id="WE_107" depart="107.00" departLane="1i_0" departPos="4.10" departSpeed="0.00" departDelay="0.00" arrival="183.00" arrivalLane="2o_0" arrivalPos="492.80" arrivalSpeed="12.17" duration="76.00" routeLength="995.90" waitingTime="0.00" waitingCount="0" stopTime="0.00" timeLoss="11.23" rerouteNo="0" devices="tripinfo_WE_107" vType="car" speedFactor="1.10" vaporized=""/>
    <tripinfo id="EW_38" depart="40.00" departLane="4i_0" departPos="4.10" departSpeed="0.00" departDelay="2.00" arrival="199.00" arrivalLane="2o_0" arrivalPos="492.80" arrivalSpeed="9.63" duration="159.00" routeLength="995.70" waitingTime="45.00" waitingCount="2" stopTime="0.00" timeLoss="83.32" rerouteNo="0" devices="tripinfo_EW_38" vType="car" speedFactor="0.94" vaporized=""/>
    <tripinfo id="WE_110" depart="110.00" departLane="1i_0" departPos="4.10" departSpeed="0.00" departDelay="0.00" arrival="199.00" arrivalLane="4o_0" arrivalPos="492.80" arrivalSpeed="9.17" duration="89.00" routeLength="995.70" waitingTime="0.00" waitingCount="0" stopTime="0.00" timeLoss="9.92" rerouteNo="0" devices="tripinfo_WE_110" vType="car" speedFactor="0.90" vaporized=""/>
    <tripinfo id="EW_43" depart="43.00" departLane="4i_0" departPos="4.10" departSpeed="0.00" departDelay="0.00" arrival="201.00" arrivalLane="2o_0" arrivalPos="492.80" arrivalSpeed="10.32" duration="158.00" routeLength="995.70" waitingTime="43.00" waitingCount="2" stopTime="0.00" timeLoss="88.29" rerouteNo="0" devices="tripinfo_EW_43" vType="car" speedFactor="1.02" vaporized=""/>
    <tripinfo id="SN_85" depart="85.00" departLane="3i_0" departPos="4.10" departSpeed="0.00" departDelay="0.00" arrival="201.00" arrivalLane="1o_0" arrivalPos="492.80" arrivalSpeed="12.98" duration="116.00" routeLength="995.70" waitingTime="19.00" waitingCount="4" stopTime="0.00" timeLoss="55.26" rerouteNo="0" devices="tripinfo_SN_85" vType="car" speedFactor="1.17" vaporized=""/>
    <tripinfo id="WE_112" depart="112.00" departLane="1i_0" departPos="4.10" departSpeed="0.00" departDelay="0.00" arrival="201.00" arrivalLane="4o_0" arrivalPos="492.80" arrivalSpeed="10.72" duration="89.00" routeLength="995.70" waitingTime="0.00" waitingCount="0" stopTime="0.00" timeLoss="19.60" rerouteNo="0" devices="tripinfo_WE_112" vType="car" speedFactor="1.03" vaporized=""/>
    <tripinfo id="SN_71" depart="71.00" departLane="3i_0" departPos="4.10" departSpeed="0.00" departDelay="0.00" arrival="202.00" arrivalLane="4o_0" arrivalPos="492.80" arrivalSpeed="11.97" duration="131.00" routeLength="995.90" waitingTime="32.00" waitingCount="4" stopTime="0.00" timeLoss="68.42" rerouteNo="0" devices="tripinfo_SN_71" vType="car" speedFactor="1.13" vaporized=""/>
    <tripinfo id="WE_114" depart="115.00" departLane="1i_0" departPos="4.10" departSpeed="0.00" departDelay="1.00" arrival="203.00" arrivalLane="2o_0" arrivalPos="492.80" arrivalSpeed="11.71" duration="88.00" routeLength="995.90" waitingTime="3.00" waitingCount="2" stopTime="0.00" timeLoss="22.72" rerouteNo="0" devices="tripinfo_WE_114" vType="car" speedFactor="1.09" vaporized=""/>
    <tripinfo id="WE_118" depart="118.00" departLane="1i_0" departPos="4.10" departSpeed="0.00" departDelay="0.00" arrival="204.00" arrivalLane="3o_0" arrivalPos="492.80" arrivalSpeed="11.01" duration="86.00" routeLength="990.53" waitingTime="2.00" waitingCount="1" stopTime="0.00" timeLoss="18.05" rerouteNo="0" devices="tripinfo_WE_118" vType="car" speedFactor="1.04" vaporized=""/>
    <tripinfo id="NS_132" depart="135.00" departLane="2i_0" departPos="4.10" departSpeed="0.00" departDelay="3.00" arrival="204.00" arrivalLane="1o_0" arrivalPos="492.80" arrivalSpeed="11.73" duration="69.00" routeLength="995.90" waitingTime="0.00" waitingCount="0" stopTime="0.00" timeLoss="8.59" rerouteNo="0" devices="tripinfo_NS_132" vType="car" speedFactor="1.17" vaporized=""/>
    <tripinfo id="EW_57" depart="57.00" departLane="4i_0" departPos="4.10" departSpeed="0.00" departDelay="0.00" arrival="217.00" arrivalLane="2o_0" arrivalPos="492.80" arrivalSpeed="8.44" duration="160.00" routeLength="995.70" waitingTime="39.00" waitingCount="2" stopTime="0.00" timeLoss="74.24" rerouteNo="0" devices="tripinfo_EW_57" vType="car" speedFactor="0.83" vaporized=""/>
    <tripinfo id="NS_128" depart="128.00" departLane="2i_0" departPos="4.10" departSpeed="0.00" departDelay="0.00" arrival="217.00" arrivalLane="4o_0" arrivalPos="492.80" arrivalSpeed="8.60" duration="89.00" routeLength="990.53" waitingTime="0.00" waitingCount="0" stopTime="0.00" timeLoss="8.36" rerouteNo="0" devices="tripinfo_NS_128" vType="car" speedFactor="0.88" vaporized=""/>
    <tripinfo id="NS_135" depart="138.00" departLane="2i_0" departPos="4.10" departSpeed="0.00" departDelay="3.00" arrival="218.00" arrivalLane="4o_0" arrivalPos="492.80" arrivalSpeed="11.22" duration="80.00" routeLength="990.53" waitingTime="0.00" waitingCount="0" stopTime="0.00" timeLoss="10.76" rerouteNo="0" devices="tripinfo_NS_135" vType="car" speedFactor="1.02" vaporized=""/>
    <tripinfo id="WE_123" depart="126.00" departLane="1i_0" departPos="10.10" departSpeed="0.00" departDelay="3.00" arrival="219.00" arrivalLane="2o_0" arrivalPos="492.80" arrivalSpeed="10.25" duration="93.00" routeLength="989.90" waitingTime="0.00" waitingCount="0" stopTime="0.00" timeLoss="25.29" rerouteNo="0" devices="tripinfo_WE_123" vType="truck" speedFactor="1.04" vaporized=""/>
    <tripinfo id="WE_147" depart="147.00" departLane="1i_0" departPos="4.10" departSpeed="0.00" departDelay="0.00" arrival="225.00" arrivalLane="4o_0" arrivalPos="492.80" arrivalSpeed="11.28" duration="78.00" routeLength="995.70" waitingTime="0.00" waitingCount="0" stopTime="0.00" timeLoss="12.66" rerouteNo="0" devices="tripinfo_WE_147" vType="car" speedFactor="1.08" vaporized=""/>
    <tripinfo id="WE_144" depart="144.00" departLane="1i_0" departPos="4.10" departSpeed="0.00" departDelay="0.00" arrival="231.00" arrivalLane="3o_0" arrivalPos="492.80" arrivalSpeed="9.12" duration="87.00" routeLength="990.53" waitingTime="0.00" waitingCount="0" stopTime="0.00" timeLoss="8.31" rerouteNo="0" devices="tripinfo_WE_144" vType="car" speedFactor="0.90" vaporized=""/>
    <tripinfo id="WE_152" depart="152.00" departLane="1i_0" departPos="4.10" departSpeed="0.00" departDelay="0.00" arrival="232.00" arrivalLane="4o_0" arrivalPos="492.80" arrivalSpeed="11.06" duration="80.00" routeLength="995.70" waitingTime="0.00" waitingCount="0" stopTime="0.00" timeLoss="9.65" rerouteNo="0" devices="tripinfo_WE_152" vType="car" speedFactor="1.02" vaporized=""/>
    <tripinfo id="EW_82" depart="82.00" departLane="4i_0" departPos="4.10" departSpeed="0.00" departDelay="0.00" arrival="235.00" arrivalLane="1o_0" arrivalPos="492.80" arrivalSpeed="10.98" duration="153.00" routeLength="990.53" waitingTime="44.00" waitingCount="3" stopTime="0.00" timeLoss="83.15" rerouteNo="0" devices="tripinfo_EW_82" vType="car" speedFactor="1.01" vaporized=""/>
    <tripinfo id="SN_86" depart="88.00" departLane="3i_0" departPos="4.10" departSpeed="0.00" departDelay="2.00" arrival="241.00" arrivalLane="1o_0" arrivalPos="492.80" arrivalSpeed="10.06" duration="153.00" routeLength="995.70" waitingTime="40.00" waitingCount="6" stopTime="0.00" timeLoss="81.85" rerouteNo="0" devices="tripinfo_SN_86" vType="car" speedFactor="0.99" vaporized=""/>
    <tripinfo id="EW_113" depart="113.00" departLane="4i_0" departPos="4.10" departSpeed="0.00" departDelay="0.00" arrival="241.00" arrivalLane="2o_0" arrivalPos="492.80" arrivalSpeed="9.43" duration="128.00" routeLength="995.70" waitingTime="26.00" waitingCount="2" stopTime="0.00" timeLoss="53.68" rerouteNo="0" devices="tripinfo_EW_113" vType="car" speedFactor="0.96" vaporized=""/>
    <tripinfo id="EW_124" depart="124.00" departLane="4i_0" departPos="4.10" departSpeed="0.00" departDelay="0.00" arrival="243.00" arrivalLane="2o_0" arrivalPos="492.80" arrivalSpeed="10.62" duration="119.00" routeLength="995.70" waitingTime="23.00" waitingCount="1" stopTime="0.00" timeLoss="47.40" rerouteNo="0" devices="tripinfo_EW_124" vType="car" speedFactor="1.00" vaporized=""/>
    <tripinfo id="SN_117" depart="118.00" departLane="3i_0" departPos="4.10" departSpeed="0.00" departDelay="1.00" arrival="244.00" arrivalLane="2o_0" arrivalPos="492.80" arrivalSpeed="11.35" duration="126.00" routeLength="990.53" waitingTime="26.00" waitingCount="4" stopTime="0.00" timeLoss="58.17" rerouteNo="0" devices="tripinfo_SN_117" vType="car" speedFactor="1.04" vaporized=""/>
    <tripinfo id="WE_158" depart="158.00" departLane="1i_0" departPos="4.10" departSpeed="0.00" departDelay="0.00" arrival="245.00" arrivalLane="4o_0" arrivalPos="492.80" arrivalSpeed="9.80" duration="87.00" routeLength="995.70" waitingTime="1.00" waitingCount="1" stopTime="0.00" timeLoss="15.45" rerouteNo="0" devices="tripinfo_WE_158" vType="car" speedFactor="0.99" vaporized=""/>
    <tripinfo id="EW_125" depart="127.00" departLane="4i_0" departPos="4.10" departSpeed="0.00" departDelay="2.00" arrival="249.00" arrivalLane="1o_0" arrivalPos="492.80" arrivalSpeed="9.02" duration="122.00" routeLength="990.53" waitingTime="23.00" waitingCount="1" stopTime="0.00" timeLoss="43.68" rerouteNo="0" devices="tripinfo_EW_125" vType="car" speedFactor="0.90" vaporized=""/>
    <tripinfo id="EW_141" depart="141.00" departLane="4i_0" departPos="4.10" departSpeed="0.00" departDelay="0.00" arrival="251.00" arrivalLane="2o_0" arrivalPos="492.80" arrivalSpeed="10.15" duration="110.00" routeLength="995.70" waitingTime="17.00" waitingCount="1" stopTime="0.00" timeLoss="39.13" rerouteNo="0" devices="tripinfo_EW_141" vType="car" speedFactor="1.00" vaporized=""/>
    <tripinfo id="EW_131" depart="131.00" departLane="4i_0" departPos="4.10" departSpeed="0.00" departDelay="0.00" arrival="253.00" arrivalLane="1o_0" arrivalPos="492.80" arrivalSpeed="8.93" duration="122.00" routeLength="990.53" waitingTime="21.00" waitingCount="1" stopTime="0.00" timeLoss="39.73" rerouteNo="0" devices="tripinfo_EW_131" vType="car" speedFactor="0.85" vaporized=""/>
    <tripinfo id="NS_163" depart="163.00" departLane="2i_0" departPos="4.10" departSpeed="0.00" departDelay="0.00" arrival="255.00" arrivalLane="1o_0" arrivalPos="492.80" arrivalSpeed="8.98" duration="92.00" routeLength="995.90" waitingTime="0.00" waitingCount="0" stopTime="0.00" timeLoss="11.81" rerouteNo="0" devices="tripinfo_NS_163" vType="car" speedFactor="0.88" vaporized=""/>
    <tripinfo id="SN_130" depart="130.00" departLane="3i_0" departPos="10.10" departSpeed="0.00" departDelay="0.00" arrival="258.00" arrivalLane="1o_0" arrivalPos="492.80" arrivalSpeed="9.84" duration="128.00" routeLength="989.70" waitingTime="20.00" waitingCount="4" stopTime="0.00" timeLoss="51.58" rerouteNo="0" devices="tripinfo_SN_130" vType="truck" speedFactor="0.93" vaporized=""/>
    <tripinfo id="NS_167" depart="168.00" departLane="2i_0" departPos="4.10" departSpeed="0.00" departDelay="1.00" arrival="259.00" arrivalLane="3o_0" arrivalPos="492.80" arrivalSpeed="9.77" duration="91.00" routeLength="995.70" waitingTime="0.00" waitingCount="0" stopTime="0.00" timeLoss="13.32" rerouteNo="0" devices="tripinfo_NS_167" vType="car" speedFactor="0.91" vaporized=""/>
    <tripinfo id="NS_173" depart="173.00" departLane="2i_0" departPos="4.10" departSpeed="0.00" departDelay="0.00" arrival="260.00" arrivalLane="1o_0" arrivalPos="492.80" arrivalSpeed="10.80" duration="87.00" routeLength="995.90" waitingTime="0.00" waitingCount="0" stopTime="0.00" timeLoss="18.99" rerouteNo="0" devices="tripinfo_NS_173" vType="car" speedFactor="1.04" vaporized=""/>
    <tripinfo id="SN_137" depart="137.00" departLane="3i_0" departPos="10.10" departSpeed="0.00" departDelay="0.00" arrival="264.00" arrivalLane="2o_0" arrivalPos="492.80" arrivalSpeed="11.60" duration="127.00" routeLength="984.53" waitingTime="17.00" waitingCount="2" stopTime="0.00" timeLoss="59.64" rerouteNo="0" devices="tripinfo_SN_137" vType="truck" speedFactor="1.05" vaporized=""/>
    <tripinfo id="EW_145" depart="145.00" departLane="4i_0" departPos="4.10" departSpeed="0.00" departDelay="0.00" arrival="264.00" arrivalLane="3o_0" arrivalPos="492.80" arrivalSpeed="10.20" duration="119.00" routeLength="995.90" waitingTime="26.00" waitingCount="2" stopTime="0.00" timeLoss="50.05" rerouteNo="0" devices="tripinfo_EW_145" vType="car" speedFactor="1.02" vaporized=""/>
    <tripinfo id="NS_181" depart="181.00" departLane="2i_0" departPos="4.10" departSpeed="0.00" departDelay="0.00" arrival="265.00" arrivalLane="1o_0" arrivalPos="492.80" arrivalSpeed="9.89" duration="84.00" routeLength="995.90" waitingTime="0.00" waitingCount="0" stopTime="0.00" timeLoss="9.00" rerouteNo="0" devices="tripinfo_NS_181" vType="car" speedFactor="0.94" vaporized=""/>
    <tripinfo id="NS_189" depart="189.00" departLane="2i_0" departPos="4.10" departSpeed="0.00" departDelay="0.00" arrival="265.00" arrivalLane="4o_0" arrivalPos="492.80" arrivalSpeed="11.41" duration="76.00" routeLength="990.53" waitingTime="1.00" waitingCount="1" stopTime="0.00" timeLoss="10.86" rerouteNo="0" devices="tripinfo_NS_189" vType="car" speedFactor="1.09" vaporized=""/>
    <tripinfo id="NS_187" depart="187.00" departLane="2i_0" departPos="4.10" departSpeed="0.00" departDelay="0.00" arrival="268.00" arrivalLane="1o_0" arrivalPos="492.80" arrivalSpeed="10.84" duration="81.00" routeLength="995.90" waitingTime="0.00" waitingCount="0" stopTime="0.00" timeLoss="8.56" rerouteNo="0" devices="tripinfo_NS_187" vType="car" speedFactor="0.98" vaporized=""/>
    <tripinfo id="WE_180" depart="180.00" departLane="1i_0" departPos="4.10" departSpeed="0.00" departDelay="0.00" arrival="272.00" arrivalLane="2o_0" arrivalPos="492.80" arrivalSpeed="10.79" duration="92.00" routeLength="995.90" waitingTime="9.00" waitingCount="1" stopTime="0.00" timeLoss="22.88" rerouteNo="0" devices="tripinfo_WE_180" vType="car" speedFactor="1.02" vaporized=""/>
    <tripinfo id="SN_144" depart="144.00" departLane="3i_0" departPos="4.10" departSpeed="0.00" departDelay="0.00" arrival="275.00" arrivalLane="2o_0" arrivalPos="492.80" arrivalSpeed="11.96" duration="131.00" routeLength="990.53" waitingTime="21.00" waitingCount="3" stopTime="0.00" timeLoss="69.39" rerouteNo="0" devices="tripinfo_SN_144" vType="car" speedFactor="1.14" vaporized=""/>
    <tripinfo id="WE_163" depart="163.00" departLane="1i_0" departPos="4.10" departSpeed="0.00" departDelay="0.00" arrival="275.00" arrivalLane="4o_0" arrivalPos="492.80" arrivalSpeed="9.41" duration="112.00" routeLength="995.70" waitingTime="19.00" waitingCount="1" stopTime="0.00" timeLoss="36.23" rerouteNo="0" devices="tripinfo_WE_163" vType="car" speedFactor="0.94" vaporized=""/>
    <tripinfo id="WE_183" depart="183.00" departLane="1i_0" departPos="4.10" departSpeed="0.00" departDelay="0.00" arrival="277.00" arrivalLane="4o_0" arrivalPos="492.80" arrivalSpeed="10.90" duration="94.00" routeLength="995.70" waitingTime="7.00" waitingCount="1" stopTime="0.00" timeLoss="21.49" rerouteNo="0" devices="tripinfo_WE_183" vType="car" speedFactor="0.98" vaporized=""/>
    <tripinfo id="SN_141" depart="141.00" departLane="3i_0" departPos="4.10" departSpeed="0.00" departDelay="0.00" arrival="281.00" arrivalLane="4o_0" arrivalPos="492.80" arrivalSpeed="10.07" duration="140.00" routeLength="995.90" waitingTime="23.00" waitingCount="3" stopTime="0.00" timeLoss="68.38" rerouteNo="0" devices="tripinfo_SN_141" vType="car" speedFactor="1.00" vaporized=""/>
    <tripinfo id="EW_175" depart="175.00" departLane="4i_0" departPos="4.10" departSpeed="0.00" departDelay="0.00" arrival="281.00" arrivalLane="1o_0" arrivalPos="492.80" arrivalSpeed="10.39" duration="106.00" routeLength="990.53" waitingTime="16.00" waitingCount="2" stopTime="0.00" timeLoss="36.81" rerouteNo="0" devices="tripinfo_EW_175" vType="car" speedFactor="1.02" vaporized=""/>
    <tripinfo id="WE_201" depart="201.00" departLane="1i_0" departPos="4.10" departSpeed="0.00" departDelay="0.00" arrival="285.00" arrivalLane="4o_0" arrivalPos="492.80" arrivalSpeed="11.95" duration="84.00" routeLength="995.70" waitingTime="6.00" waitingCount="1" stopTime="0.00" timeLoss="22.16" rerouteNo="0" devices="tripinfo_WE_201" vType="car" speedFactor="1.15" vaporized=""/>
    <tripinfo id="EW_165" depart="165.00" departLane="4i_0" departPos="4.10" departSpeed="0.00" departDelay="0.00" arrival="286.00" arrivalLane="3o_0" arrivalPos="492.80" arrivalSpeed="9.68" duration="121.00" routeLength="995.90" waitingTime="18.00" waitingCount="2" stopTime="0.00" timeLoss="42.30" rerouteNo="0" devices="tripinfo_EW_165" vType="car" speedFactor="0.91" vaporized=""/>
    <tripinfo id="NS_198" depart="199.00" departLane="2i_0" departPos="4.10" departSpeed="0.00" departDelay="1.00" arrival="286.00" arrivalLane="1o_0" arrivalPos="492.80" arrivalSpeed="9.86" duration="87.00" routeLength="995.90" waitingTime="2.00" waitingCount="1" stopTime="0.00" timeLoss="13.90" rerouteNo="0" devices="tripinfo_NS_198" vType="car" speedFactor="0.97" vaporized=""/>
    <tripinfo id="EW_181" depart="182.00" departLane="4i_0" departPos="4.10" departSpeed="0.00" departDelay="1.00" arrival="288.00" arrivalLane="3o_0" arrivalPos="492.80" arrivalSpeed="9.90" duration="106.00" routeLength="995.90" waitingTime="12.00" waitingCount="3" stopTime="0.00" timeLoss="33.12" rerouteNo="0" devices="tripinfo_EW_181" vType="car" speedFactor="0.97" vaporized=""/>