<?xml version="1.0" encoding="UTF-8"?>

<!-- generated on 2024-05-05 22:47:48 by Eclipse SUMO sumo Version 1.19.0
<configuration xmlns:xsi="http://www.w3.org/2001/XMLSchema-instance" xsi:noNamespaceSchemaLocation="http://sumo.dlr.de/xsd/sumoConfiguration.xsd">

    <input>
        <net-file value="twoone.net.xml"/>
        <route-files value="route_gen.rou.xml"/>
    </input>

    <output>
        <tripinfo-output value="tripinfo_epi377.xml"/>
    </output>

    <report>
        <no-warnings value="true"/>
    </report>

    <traci_server>
        <remote-port value="35175"/>
    </traci_server>

</configuration>
-->

<tripinfos xmlns:xsi="http://www.w3.org/2001/XMLSchema-instance" xsi:noNamespaceSchemaLocation="http://sumo.dlr.de/xsd/tripinfo_file.xsd">
    <tripinfo id="SN_8" depart="8.00" departLane="3i_0" departPos="4.10" departSpeed="0.00" departDelay="0.00" arrival="96.00" arrivalLane="4o_0" arrivalPos="492.80" arrivalSpeed="9.92" duration="88.00" routeLength="995.90" waitingTime="1.00" waitingCount="1" stopTime="0.00" timeLoss="12.77" rerouteNo="0" devices="tripinfo_SN_8" vType="car" speedFactor="0.94" vaporized=""/>
    <tripinfo id="NS_18" depart="18.00" departLane="2i_0" departPos="4.10" departSpeed="0.00" departDelay="0.00" arrival="98.00" arrivalLane="4o_0" arrivalPos="492.80" arrivalSpeed="11.27" duration="80.00" routeLength="990.53" waitingTime="0.00" waitingCount="0" stopTime="0.00" timeLoss="12.33" rerouteNo="0" devices="tripinfo_NS_18" vType="car" speedFactor="1.05" vaporized=""/>
    <tripinfo id="WE_23" depart="23.00" departLane="1i_0" departPos="4.10" departSpeed="0.00" departDelay="0.00" arrival="106.00" arrivalLane="2o_0" arrivalPos="492.80" arrivalSpeed="9.28" duration="83.00" routeLength="995.90" waitingTime="0.00" waitingCount="0" stopTime="0.00" timeLoss="7.40" rerouteNo="0" devices="tripinfo_WE_23" vType="car" speedFactor="0.94" vaporized=""/>
    <tripinfo id="WE_29" depart="29.00" departLane="1i_0" departPos="4.10" departSpeed="0.00" departDelay="0.00" arrival="110.00" arrivalLane="4o_0" arrivalPos="492.80" arrivalSpeed="10.93" duration="81.00" routeLength="995.70" waitingTime="0.00" waitingCount="0" stopTime="0.00" timeLoss="8.94" rerouteNo="0" devices="tripinfo_WE_29" vType="car" speedFactor="0.99" vaporized=""/>
    <tripinfo id="NS_22" depart="22.00" departLane="2i_0" departPos="4.10" departSpeed="0.00" departDelay="0.00" arrival="111.00" arrivalLane="3o_0" arrivalPos="492.80" arrivalSpeed="9.56" duration="89.00" routeLength="995.70" waitingTime="0.00" waitingCount="0" stopTime="0.00" timeLoss="9.13" rerouteNo="0" devices="tripinfo_NS_22" vType="car" speedFactor="0.89" vaporized=""/>
    <tripinfo id="NS_24" depart="24.00" departLane="2i_0" departPos="4.10" departSpeed="0.00" departDelay="0.00" arrival="113.00" arrivalLane="3o_0" arrivalPos="492.80" arrivalSpeed="11.60" duration="89.00" routeLength="995.70" waitingTime="0.00" waitingCount="0" stopTime="0.00" timeLoss="23.81" rerouteNo="0" devices="tripinfo_NS_24" vType="car" speedFactor="1.09" vaporized=""/>
    <tripinfo id="NS_33" depart="35.00" departLane="2i_0" departPos="4.10" departSpeed="0.00" departDelay="2.00" arrival="120.00" arrivalLane="3o_0" arrivalPos="492.80" arrivalSpeed="9.55" duration="85.00" routeLength="995.70" waitingTime="0.00" waitingCount="0" stopTime="0.00" timeLoss="9.47" rerouteNo="0" devices="tripinfo_NS_33" vType="car" speedFactor="0.94" vaporized=""/>
    <tripinfo id="NS_32" depart="32.00" departLane="2i_0" departPos="4.10" departSpeed="0.00" departDelay="0.00" arrival="121.00" arrivalLane="4o_0" arrivalPos="492.80" arrivalSpeed="9.01" duration="89.00" routeLength="990.53" waitingTime="0.00" waitingCount="0" stopTime="0.00" timeLoss="8.73" rerouteNo="0" devices="tripinfo_NS_32" vType="car" speedFactor="0.88" vaporized=""/>
    <tripinfo id="WE_45" depart="45.00" departLane="1i_0" departPos="4.10" departSpeed="0.00" departDelay="0.00" arrival="123.00" arrivalLane="3o_0" arrivalPos="492.80" arrivalSpeed="10.87" duration="78.00" routeLength="990.53" waitingTime="0.00" waitingCount="0" stopTime="0.00" timeLoss="8.18" rerouteNo="0" devices="tripinfo_WE_45" vType="car" speedFactor="1.01" vaporized=""/>
    <tripinfo id="WE_30" depart="31.00" departLane="1i_0" departPos="4.10" departSpeed="0.00" departDelay="1.00" arrival="124.00" arrivalLane="4o_0" arrivalPos="492.80" arrivalSpeed="9.79" duration="93.00" routeLength="995.70" waitingTime="2.00" waitingCount="1" stopTime="0.00" timeLoss="16.24" rerouteNo="0" devices="tripinfo_WE_30" vType="car" speedFactor="0.93" vaporized=""/>
    <tripinfo id="NS_43" depart="43.00" departLane="2i_0" departPos="4.10" departSpeed="0.00" departDelay="0.00" arrival="125.00" arrivalLane="3o_0" arrivalPos="492.80" arrivalSpeed="10.26" duration="82.00" routeLength="995.70" waitingTime="0.00" waitingCount="0" stopTime="0.00" timeLoss="12.43" rerouteNo="0" devices="tripinfo_NS_43" vType="car" speedFactor="1.02" vaporized=""/>
    <tripinfo id="WE_51" depart="51.00" departLane="1i_0" departPos="4.10" departSpeed="0.00" departDelay="0.00" arrival="132.00" arrivalLane="2o_0" arrivalPos="492.80" arrivalSpeed="10.66" duration="81.00" routeLength="995.90" waitingTime="0.00" waitingCount="0" stopTime="0.00" timeLoss="8.11" rerouteNo="0" devices="tripinfo_WE_51" vType="car" speedFactor="0.97" vaporized=""/>
    <tripinfo id="WE_53" depart="54.00" departLane="1i_0" departPos="4.10" departSpeed="0.00" departDelay="1.00" arrival="145.00" arrivalLane="4o_0" arrivalPos="492.80" arrivalSpeed="9.59" duration="91.00" routeLength="995.70" waitingTime="0.00" waitingCount="0" stopTime="0.00" timeLoss="10.96" rerouteNo="0" devices="tripinfo_WE_53" vType="car" speedFactor="0.89" vaporized=""/>
    <tripinfo id="NS_71" depart="71.00" departLane="2i_0" departPos="10.10" departSpeed="0.00" departDelay="0.00" arrival="150.00" arrivalLane="1o_0" arrivalPos="492.80" arrivalSpeed="11.43" duration="79.00" routeLength="989.90" waitingTime="0.00" waitingCount="0" stopTime="0.00" timeLoss="11.52" rerouteNo="0" devices="tripinfo_NS_71" vType="truck" speedFactor="1.07" vaporized=""/>
    <tripinfo id="WE_63" depart="63.00" departLane="1i_0" departPos="4.10" departSpeed="0.00" departDelay="0.00" arrival="152.00" arrivalLane="2o_0" arrivalPos="492.80" arrivalSpeed="8.70" duration="89.00" routeLength="995.90" waitingTime="0.00" waitingCount="0" stopTime="0.00" timeLoss="7.94" rerouteNo="0" devices="tripinfo_WE_63" vType="car" speedFactor="0.87" vaporized=""/>
    <tripinfo id="WE_54" depart="57.00" departLane="1i_0" departPos="4.10" departSpeed="0.00" departDelay="3.00" arrival="153.00" arrivalLane="4o_0" arrivalPos="492.80" arrivalSpeed="9.17" duration="96.00" routeLength="995.70" waitingTime="0.00" waitingCount="0" stopTime="0.00" timeLoss="10.06" rerouteNo="0" devices="tripinfo_WE_54" vType="car" speedFactor="0.83" vaporized=""/>
    <tripinfo id="WE_87" depart="87.00" departLane="1i_0" departPos="4.10" departSpeed="0.00" departDelay="0.00" arrival="156.00" arrivalLane="3o_0" arrivalPos="492.80" arrivalSpeed="12.02" duration="69.00" routeLength="990.53" waitingTime="0.00" waitingCount="0" stopTime="0.00" timeLoss="8.68" rerouteNo="0" devices="tripinfo_WE_87" vType="car" speedFactor="1.18" vaporized=""/>
    <tripinfo id="NS_88" depart="88.00" departLane="2i_0" departPos="4.10" departSpeed="0.00" departDelay="0.00" arrival="157.00" arrivalLane="1o_0" arrivalPos="492.80" arrivalSpeed="11.79" duration="69.00" routeLength="995.90" waitingTime="0.00" waitingCount="0" stopTime="0.00" timeLoss="7.75" rerouteNo="0" devices="tripinfo_NS_88" vType="car" speedFactor="1.15" vaporized=""/>
    <tripinfo id="WE_91" depart="91.00" departLane="1i_0" departPos="4.10" departSpeed="0.00" departDelay="0.00" arrival="159.00" arrivalLane="2o_0" arrivalPos="492.80" arrivalSpeed="12.12" duration="68.00" routeLength="995.90" waitingTime="0.00" waitingCount="0" stopTime="0.00" timeLoss="7.76" rerouteNo="0" devices="tripinfo_WE_91" vType="car" speedFactor="1.17" vaporized=""/>
    <tripinfo id="WE_102" depart="102.00" departLane="1i_0" departPos="4.10" departSpeed="0.00" departDelay="0.00" arrival="183.00" arrivalLane="2o_0" arrivalPos="492.80" arrivalSpeed="10.40" duration="81.00" routeLength="995.90" waitingTime="0.00" waitingCount="0" stopTime="0.00" timeLoss="7.69" rerouteNo="0" devices="tripinfo_WE_102" vType="car" speedFactor="0.97" vaporized=""/>
    <tripinfo id="NS_114" depart="114.00" departLane="2i_0" departPos="10.10" departSpeed="0.00" departDelay="0.00" arrival="200.00" arrivalLane="3o_0" arrivalPos="492.80" arrivalSpeed="10.94" duration="86.00" routeLength="989.70" waitingTime="0.00" waitingCount="0" stopTime="0.00" timeLoss="16.44" rerouteNo="0" devices="tripinfo_NS_114" vType="truck" speedFactor="1.02" vaporized=""/>
    <tripinfo id="NS_127" depart="127.00" departLane="2i_0" departPos="4.10" departSpeed="0.00" departDelay="0.00" arrival="206.00" arrivalLane="4o_0" arrivalPos="492.80" arrivalSpeed="9.97" duration="79.00" routeLength="990.53" waitingTime="0.00" waitingCount="0" stopTime="0.00" timeLoss="8.03" rerouteNo="0" devices="tripinfo_NS_127" vType="car" speedFactor="1.00" vaporized=""/>
    <tripinfo id="NS_144" depart="145.00" departLane="2i_0" departPos="10.10" departSpeed="0.00" departDelay="1.00" arrival="223.00" arrivalLane="4o_0" arrivalPos="492.80" arrivalSpeed="11.48" duration="78.00" routeLength="984.53" waitingTime="0.00" waitingCount="0" stopTime="0.00" timeLoss="12.30" rerouteNo="0" devices="tripinfo_NS_144" vType="truck" speedFactor="1.08" vaporized=""/>
    <tripinfo id="NS_158" depart="159.00" departLane="2i_0" departPos="4.10" departSpeed="0.00" departDelay="1.00" arrival="229.00" arrivalLane="1o_0" arrivalPos="492.80" arrivalSpeed="11.72" duration="70.00" routeLength="995.90" waitingTime="0.00" waitingCount="0" stopTime="0.00" timeLoss="7.91" rerouteNo="0" devices="tripinfo_NS_158" vType="car" speedFactor="1.14" vaporized=""/>
    <tripinfo id="WE_152" depart="152.00" departLane="1i_0" departPos="4.10" departSpeed="0.00" departDelay="0.00" arrival="232.00" arrivalLane="4o_0" arrivalPos="492.80" arrivalSpeed="10.19" duration="80.00" routeLength="995.70" waitingTime="0.00" waitingCount="0" stopTime="0.00" timeLoss="9.02" rerouteNo="0" devices="tripinfo_WE_152" vType="car" speedFactor="1.00" vaporized=""/>
    <tripinfo id="NS_141" depart="141.00" departLane="2i_0" departPos="4.10" departSpeed="0.00" departDelay="0.00" arrival="235.00" arrivalLane="3o_0" arrivalPos="492.80" arrivalSpeed="8.66" duration="94.00" routeLength="995.70" waitingTime="0.00" waitingCount="0" stopTime="0.00" timeLoss="11.08" rerouteNo="0" devices="tripinfo_NS_141" vType="car" speedFactor="0.85" vaporized=""/>
    <tripinfo id="WE_153" depart="154.00" departLane="1i_0" departPos="4.10" departSpeed="0.00" departDelay="1.00" arrival="239.00" arrivalLane="4o_0" arrivalPos="492.80" arrivalSpeed="10.09" duration="85.00" routeLength="995.70" waitingTime="1.00" waitingCount="1" stopTime="0.00" timeLoss="13.67" rerouteNo="0" devices="tripinfo_WE_153" vType="car" speedFactor="1.00" vaporized=""/>
    <tripinfo id="NS_170" depart="170.00" departLane="2i_0" departPos="4.10" departSpeed="0.00" departDelay="0.00" arrival="247.00" arrivalLane="1o_0" arrivalPos="492.80" arrivalSpeed="10.57" duration="77.00" routeLength="995.90" waitingTime="0.00" waitingCount="0" stopTime="0.00" timeLoss="7.80" rerouteNo="0" devices="tripinfo_NS_170" vType="car" speedFactor="1.02" vaporized=""/>
    <tripinfo id="NS_175" depart="175.00" departLane="2i_0" departPos="4.10" departSpeed="0.00" departDelay="0.00" arrival="256.00" arrivalLane="4o_0" arrivalPos="492.80" arrivalSpeed="9.59" duration="81.00" routeLength="990.53" waitingTime="0.00" waitingCount="0" stopTime="0.00" timeLoss="8.57" rerouteNo="0" devices="tripinfo_NS_175" vType="car" speedFactor="0.97" vaporized=""/>
    <tripinfo id="WE_181" depart="181.00" departLane="1i_0" departPos="4.10" departSpeed="0.00" departDelay="0.00" arrival="258.00" arrivalLane="4o_0" arrivalPos="492.80" arrivalSpeed="11.43" duration="77.00" routeLength="995.70" waitingTime="0.00" waitingCount="0" stopTime="0.00" timeLoss="11.43" rerouteNo="0" devices="tripinfo_WE_181" vType="car" speedFactor="1.08" vaporized=""/>
    <tripinfo id="NS_181" depart="183.00" departLane="2i_0" departPos="10.10" departSpeed="0.00" departDelay="2.00" arrival="262.00" arrivalLane="4o_0" arrivalPos="492.80" arrivalSpeed="11.37" duration="79.00" routeLength="984.53" waitingTime="0.00" waitingCount="0" stopTime="0.00" timeLoss="12.11" rerouteNo="0" devices="tripinfo_NS_181" vType="truck" speedFactor="1.06" vaporized=""/>
    <tripinfo id="NS_183" depart="187.00" departLane="2i_0" departPos="4.10" departSpeed="0.00" departDelay="4.00" arrival="273.00" arrivalLane="1o_0" arrivalPos="492.80" arrivalSpeed="9.87" duration="86.00" routeLength="995.90" waitingTime="0.00" waitingCount="0" stopTime="0.00" timeLoss="10.36" rerouteNo="0" devices="tripinfo_NS_183" vType="car" speedFactor="0.94" vaporized=""/>
    <tripinfo id="NS_190" depart="190.00" departLane="2i_0" departPos="4.10" departSpeed="0.00" departDelay="0.00" arrival="279.00" arrivalLane="3o_0" arrivalPos="492.80" arrivalSpeed="9.46" duration="89.00" routeLength="995.70" waitingTime="0.00" waitingCount="0" stopTime="0.00" timeLoss="11.78" rerouteNo="0" devices="tripinfo_NS_190" vType="car" speedFactor="0.91" vaporized=""/>
    <tripinfo id="NS_204" depart="204.00" departLane="2i_0" departPos="4.10" departSpeed="0.00" departDelay="0.00" arrival="287.00" arrivalLane="4o_0" arrivalPos="492.80" arrivalSpeed="10.19" duration="83.00" routeLength="990.53" waitingTime="0.00" waitingCount="0" stopTime="0.00" timeLoss="8.91" rerouteNo="0" devices="tripinfo_NS_204" vType="car" speedFactor="0.96" vaporized=""/>
    <tripinfo id="NS_206" depart="208.00" departLane="2i_0" departPos="10.10" departSpeed="0.00" departDelay="2.00" arrival="291.00" arrivalLane="1o_0" arrivalPos="492.80" arrivalSpeed="10.62" duration="83.00" routeLength="989.90" waitingTime="0.00" waitingCount="0" stopTime="0.00" timeLoss="11.69" rerouteNo="0" devices="tripinfo_NS_206" vType="truck" speedFactor="0.99" vaporized=""/>
    <tripinfo id="NS_208" depart="212.00" departLane="2i_0" departPos="4.10" departSpeed="0.00" departDelay="4.00" arrival="292.00" arrivalLane="4o_0" arrivalPos="492.80" arrivalSpeed="10.93" duration="80.00" routeLength="990.53" waitingTime="0.00" waitingCount="0" stopTime="0.00" timeLoss="11.80" rerouteNo="0" devices="tripinfo_NS_208" vType="car" speedFactor="1.03" vaporized=""/>
    <tripinfo id="NS_210" depart="215.00" departLane="2i_0" departPos="4.10" departSpeed="0.00" departDelay="5.00" arrival="293.00" arrivalLane="1o_0" arrivalPos="492.80" arrivalSpeed="11.85" duration="78.00" routeLength="995.90" waitingTime="0.00" waitingCount="0" stopTime="0.00" timeLoss="12.87" rerouteNo="0" devices="tripinfo_NS_210" vType="car" speedFactor="1.09" vaporized=""/>
    <tripinfo id="NS_212" depart="217.00" departLane="2i_0" departPos="4.10" departSpeed="0.00" departDelay="5.00" arrival="296.00" arrivalLane="1o_0" arrivalPos="492.80" arrivalSpeed="11.34" duration="79.00" routeLength="995.90" waitingTime="0.00" waitingCount="0" stopTime="0.00" timeLoss="10.22" rerouteNo="0" devices="tripinfo_NS_212" vType="car" speedFactor="1.03" vaporized=""/>
    <tripinfo id="WE_225" depart="225.00" departLane="1i_0" departPos="4.10" departSpeed="0.00" departDelay="0.00" arrival="304.00" arrivalLane="3o_0" arrivalPos="492.80" arrivalSpeed="10.50" duration="79.00" routeLength="990.53" waitingTime="0.00" waitingCount="0" stopTime="0.00" timeLoss="9.19" rerouteNo="0" devices="tripinfo_WE_225" vType="car" speedFactor="1.02" vaporized=""/>
    <tripinfo id="WE_189" depart="189.00" departLane="1i_0" departPos="4.10" departSpeed="0.00" departDelay="0.00" arrival="308.00" arrivalLane="2o_0" arrivalPos="492.80" arrivalSpeed="9.21" duration="119.00" routeLength="995.90" waitingTime="26.00" waitingCount="1" stopTime="0.00" timeLoss="41.14" rerouteNo="0" devices="tripinfo_WE_189" vType="car" speedFactor="0.91" vaporized=""/>
    <tripinfo id="WE_186" depart="186.00" departLane="1i_0" departPos="4.10" departSpeed="0.00" departDelay="0.00" arrival="309.00" arrivalLane="4o_0" arrivalPos="492.80" arrivalSpeed="9.16" duration="123.00" routeLength="995.70" waitingTime="29.00" waitingCount="1" stopTime="0.00" timeLoss="42.85" rerouteNo="0" devices="tripinfo_WE_186" vType="car" speedFactor="0.88" vaporized=""/>
    <tripinfo id="NS_245" depart="245.00" departLane="2i_0" departPos="4.10" departSpeed="0.00" departDelay="0.00" arrival="315.00" arrivalLane="4o_0" arrivalPos="492.80" arrivalSpeed="12.42" duration="70.00" routeLength="990.53" waitingTime="0.00" waitingCount="0" stopTime="0.00" timeLoss="7.86" rerouteNo="0" devices="tripinfo_NS_245" vType="car" speedFactor="1.15" vaporized=""/>
    <tripinfo id="NS_238" depart="238.00" departLane="2i_0" departPos="4.10" departSpeed="0.00" departDelay="0.00" arrival="321.00" arrivalLane="3o_0" arrivalPos="492.80" arrivalSpeed="9.54" duration="83.00" routeLength="995.70" waitingTime="0.00" waitingCount="0" stopTime="0.00" timeLoss="9.38" rerouteNo="0" devices="tripinfo_NS_238" vType="car" speedFactor="0.97" vaporized=""/>
    <tripinfo id="NS_254" depart="254.00" departLane="2i_0" departPos="4.10" departSpeed="0.00" departDelay="0.00" arrival="330.00" arrivalLane="1o_0" arrivalPos="492.80" arrivalSpeed="10.93" duration="76.00" routeLength="995.90" waitingTime="0.00" waitingCount="0" stopTime="0.00" timeLoss="7.87" rerouteNo="0" devices="tripinfo_NS_254" vType="car" speedFactor="1.04" vaporized=""/>
    <tripinfo id="NS_260" depart="260.00" departLane="2i_0" departPos="4.10" departSpeed="0.00" departDelay="0.00" arrival="339.00" arrivalLane="3o_0" arrivalPos="492.80" arrivalSpeed="10.14" duration="79.00" routeLength="995.70" waitingTime="0.00" waitingCount="0" stopTime="0.00" timeLoss="9.48" rerouteNo="0" devices="tripinfo_NS_260" vType="car" speedFactor="1.02" vaporized=""/>
    <tripinfo id="NS_265" depart="266.00" departLane="2i_0" departPos="4.10" departSpeed="0.00" departDelay="1.00" arrival="345.00" arrivalLane="3o_0" arrivalPos="492.80" arrivalSpeed="11.07" duration="79.00" routeLength="995.70" waitingTime="0.00" waitingCount="0" stopTime="0.00" timeLoss="13.99" rerouteNo="0" devices="tripinfo_NS_265" vType="car" speedFactor="1.09" vaporized=""/>
    <tripinfo id="NS_261" depart="263.00" departLane="2i_0" departPos="4.10" departSpeed="0.00" departDelay="2.00" arrival="356.00" arrivalLane="4o_0" arrivalPos="492.80" arrivalSpeed="8.84" duration="93.00" routeLength="990.53" waitingTime="0.00" waitingCount="0" stopTime="0.00" timeLoss="8.30" rerouteNo="0" devices="tripinfo_NS_261" vType="car" speedFactor="0.83" vaporized=""/>
    <tripinfo id="NS_267" depart="269.00" departLane="2i_0" departPos="4.10" departSpeed="0.00" departDelay="2.00" arrival="358.00" arrivalLane="4o_0" arrivalPos="492.80" arrivalSpeed="10.67" duration="89.00" routeLength="990.53" waitingTime="0.00" waitingCount="0" stopTime="0.00" timeLoss="18.74" rerouteNo="0" devices="tripinfo_NS_267" vType="car" speedFactor="1.01" vaporized=""/>
    <tripinfo id="NS_290" depart="290.00" departLane="2i_0" departPos="4.10" departSpeed="0.00" departDelay="0.00" arrival="372.00" arrivalLane="4o_0" arrivalPos="492.80" arrivalSpeed="10.43" duration="82.00" routeLength="990.53" waitingTime="0.00" waitingCount="0" stopTime="0.00" timeLoss="8.25" rerouteNo="0" devices="tripinfo_NS_290" vType="car" speedFactor="0.95" vaporized=""/>
    <tripinfo id="SN_10" depart="10.00" departLane="3i_0" departPos="4.10" departSpeed="0.00" departDelay="0.00" arrival="374.00" arrivalLane="4o_0" arrivalPos="492.80" arrivalSpeed="11.86" duration="364.00" routeLength="981.50" waitingTime="301.00" waitingCount="1" stopTime="0.00" timeLoss="316.61" rerouteNo="0" devices="tripinfo_SN_10" vType="car" speedFactor="1.08" vaporized=""/>
    <tripinfo id="NS_294" depart="294.00" departLane="2i_0" departPos="4.10" departSpeed="0.00" departDelay="0.00" arrival="382.00" arrivalLane="4o_0" arrivalPos="492.80" arrivalSpeed="8.83" duration="88.00" routeLength="990.53" waitingTime="0.00" waitingCount="0" stopTime="0.00" timeLoss="8.87" rerouteNo="0" devices="tripinfo_NS_294" vType="car" speedFactor="0.89" vaporized=""/>
    <tripinfo id="NS_299" depart="299.00" departLane="2i_0" departPos="10.10" departSpeed="0.00" departDelay="0.00" arrival="384.00" arrivalLane="4o_0" arrivalPos="492.80" arrivalSpeed="11.18" duration="85.00" routeLength="984.53" waitingTime="0.00" waitingCount="0" stopTime="0.00" timeLoss="16.64" rerouteNo="0" devices="tripinfo_NS_299" vType="truck" speedFactor="1.03" vaporized=""/>
    <tripinfo id="EW_6" depart="6.00" departLane="4i_0" departPos="10.10" departSpeed="0.00" departDelay="0.00" arrival="389.00" arrivalLane="2o_0" arrivalPos="492.80" arrivalSpeed="10.92" duration="383.00" routeLength="975.50" waitingTime="301.00" waitingCount="1" stopTime="0.00" timeLoss="316.12" rerouteNo="0" devices="tripinfo_EW_6" vType="truck" speedFactor="1.03" vaporized=""/>
    <tripinfo id="NS_302" depart="303.00" departLane="2i_0" departPos="4.10" departSpeed="0.00" departDelay="1.00" arrival="390.00" arrivalLane="1o_0" arrivalPos="492.80" arrivalSpeed="9.46" duration="87.00" routeLength="995.90" waitingTime="0.00" waitingCount="0" stopTime="0.00" timeLoss="10.98" rerouteNo="0" devices="tripinfo_NS_302" vType="car" speedFactor="0.93" vaporized=""/>
    <tripinfo id="NS_307" depart="308.00" departLane="2i_0" departPos="10.10" departSpeed="0.00" departDelay="1.00" arrival="393.00" arrivalLane="1o_0" arrivalPos="492.80" arrivalSpeed="11.31" duration="85.00" routeLength="989.90" waitingTime="0.00" waitingCount="0" stopTime="0.00" timeLoss="16.78" rerouteNo="0" devices="tripinfo_NS_307" vType="truck" speedFactor="1.05" vaporized=""/>
    <tripinfo id="NS_318" depart="320.00" departLane="2i_0" departPos="4.10" departSpeed="0.00" departDelay="2.00" arrival="394.00" arrivalLane="4o_0" arrivalPos="492.80" arrivalSpeed="13.03" duration="74.00" routeLength="990.53" waitingTime="0.00" waitingCount="0" stopTime="0.00" timeLoss="14.05" rerouteNo="0" devices="tripinfo_NS_318" vType="car" speedFactor="1.18" vaporized=""/>
    <tripinfo id="NS_317" depart="317.00" departLane="2i_0" departPos="4.10" departSpeed="0.00" departDelay="0.00" arrival="404.00" arrivalLane="3o_0" arrivalPos="492.80" arrivalSpeed="9.78" duration="87.00" routeLength="995.70" waitingTime="0.00" waitingCount="0" stopTime="0.00" timeLoss="10.19" rerouteNo="0" devices="tripinfo_NS_317" vType="car" speedFactor="0.92" vaporized=""/>
    <tripinfo id="WE_264" depart="264.00" departLane="1i_0" departPos="4.10" departSpeed="0.00" departDelay="0.00" arrival="408.00" arrivalLane="4o_0" arrivalPos="492.80" arrivalSpeed="10.20" duration="144.00" routeLength="995.70" waitingTime="54.00" waitingCount="1" stopTime="0.00" timeLoss="67.41" rerouteNo="0" devices="tripinfo_WE_264" vType="car" speedFactor="0.92" vaporized=""/>
    <tripinfo id="WE_270" depart="270.00" departLane="1i_0" departPos="4.10" departSpeed="0.00" departDelay="0.00" arrival="412.00" arrivalLane="2o_0" arrivalPos="492.80" arrivalSpeed="10.04" duration="142.00" routeLength="995.90" waitingTime="49.00" waitingCount="1" stopTime="0.00" timeLoss="63.85" rerouteNo="0" devices="tripinfo_WE_270" vType="car" speedFactor="0.91" vaporized=""/>
    <tripinfo id="NS_329" depart="329.00" departLane="2i_0" departPos="4.10" departSpeed="0.00" departDelay="0.00" arrival="412.00" arrivalLane="3o_0" arrivalPos="492.80" arrivalSpeed="10.26" duration="83.00" routeLength="995.70" waitingTime="0.00" waitingCount="0" stopTime="0.00" timeLoss="11.10" rerouteNo="0" devices="tripinfo_NS_329" vType="car" speedFactor="0.99" vaporized=""/>
    <tripinfo id="NS_335" depart="335.00" departLane="2i_0" departPos="4.10" departSpeed="0.00" departDelay="0.00" arrival="413.00" arrivalLane="3o_0" arrivalPos="492.80" arrivalSpeed="10.80" duration="78.00" routeLength="995.70" waitingTime="0.00" waitingCount="0" stopTime="0.00" timeLoss="11.99" rerouteNo="0" devices="tripinfo_NS_335" vType="car" speedFactor="1.07" vaporized=""/>
    <tripinfo id="WE_279" depart="279.00" departLane="1i_0" departPos="4.10" departSpeed="0.00" departDelay="0.00" arrival="414.00" arrivalLane="2o_0" arrivalPos="492.80" arrivalSpeed="10.82" duration="135.00" routeLength="995.90" waitingTime="46.00" waitingCount="1" stopTime="0.00" timeLoss="68.14" rerouteNo="0" devices="tripinfo_WE_279" vType="car" speedFactor="1.06" vaporized=""/>
    <tripinfo id="NS_339" depart="339.00" departLane="2i_0" departPos="4.10" departSpeed="0.00" departDelay="0.00" arrival="416.00" arrivalLane="1o_0" arrivalPos="492.80" arrivalSpeed="10.22" duration="77.00" routeLength="995.90" waitingTime="0.00" waitingCount="0" stopTime="0.00" timeLoss="8.24" rerouteNo="0" devices="tripinfo_NS_339" vType="car" speedFactor="1.03" vaporized=""/>
    <tripinfo id="WE_295" depart="296.00" departLane="1i_0" departPos="4.10" departSpeed="0.00" departDelay="1.00" arrival="419.00" arrivalLane="4o_0" arrivalPos="492.80" arrivalSpeed="10.95" duration="123.00" routeLength="995.70" waitingTime="36.00" waitingCount="2" stopTime="0.00" timeLoss="56.29" rerouteNo="0" devices="tripinfo_WE_295" vType="car" speedFactor="1.07" vaporized=""/>
    <tripinfo id="WE_296" depart="299.00" departLane="1i_0" departPos="4.10" departSpeed="0.00" departDelay="3.00" arrival="423.00" arrivalLane="4o_0" arrivalPos="492.80" arrivalSpeed="10.61" duration="124.00" routeLength="995.70" waitingTime="32.00" waitingCount="2" stopTime="0.00" timeLoss="54.06" rerouteNo="0" devices="tripinfo_WE_296" vType="car" speedFactor="1.01" vaporized=""/>
    <tripinfo id="WE_299" depart="302.00" departLane="1i_0" departPos="4.10" departSpeed="0.00" departDelay="3.00" arrival="424.00" arrivalLane="3o_0" arrivalPos="492.80" arrivalSpeed="10.50" duration="122.00" routeLength="990.53" waitingTime="29.00" waitingCount="2" stopTime="0.00" timeLoss="53.49" rerouteNo="0" devices="tripinfo_WE_299" vType="car" speedFactor="1.03" vaporized=""/>
    <tripinfo id="WE_301" depart="305.00" departLane="1i_0" departPos="4.10" departSpeed="0.00" departDelay="4.00" arrival="429.00" arrivalLane="3o_0" arrivalPos="492.80" arrivalSpeed="10.14" duration="124.00" routeLength="990.53" waitingTime="27.00" waitingCount="2" stopTime="0.00" timeLoss="50.83" rerouteNo="0" devices="tripinfo_WE_301" vType="car" speedFactor="0.96" vaporized=""/>
    <tripinfo id="WE_329" depart="330.00" departLane="1i_0" departPos="10.10" departSpeed="0.00" departDelay="1.00" arrival="432.00" arrivalLane="2o_0" arrivalPos="492.80" arrivalSpeed="10.80" duration="102.00" routeLength="989.90" waitingTime="3.00" waitingCount="1" stopTime="0.00" timeLoss="31.72" rerouteNo="0" devices="tripinfo_WE_329" vType="truck" speedFactor="1.00" vaporized=""/>
    <tripinfo id="WE_305" depart="308.00" departLane="1i_0" departPos="4.10" departSpeed="0.00" departDelay="3.00" arrival="437.00" arrivalLane="3o_0" arrivalPos="492.80" arrivalSpeed="9.25" duration="129.00" routeLength="990.53" waitingTime="22.00" waitingCount="2" stopTime="0.00" timeLoss="47.82" rerouteNo="0" devices="tripinfo_WE_305" vType="car" speedFactor="0.87" vaporized=""/>
    <tripinfo id="WE_363" depart="363.00" departLane="1i_0" departPos="4.10" departSpeed="0.00" departDelay="0.00" arrival="437.00" arrivalLane="4o_0" arrivalPos="492.80" arrivalSpeed="11.20" duration="74.00" routeLength="995.70" waitingTime="0.00" waitingCount="0" stopTime="0.00" timeLoss="10.51" rerouteNo="0" devices="tripinfo_WE_363" vType="car" speedFactor="1.12" vaporized=""/>
    <tripinfo id="WE_349" depart="349.00" departLane="1i_0" departPos="4.10" departSpeed="0.00" departDelay="0.00" arrival="439.00" arrivalLane="3o_0" arrivalPos="492.80" arrivalSpeed="11.00" duration="90.00" routeLength="990.53" waitingTime="0.00" waitingCount="0" stopTime="0.00" timeLoss="23.37" rerouteNo="0" devices="tripinfo_WE_349" vType="car" speedFactor="1.06" vaporized=""/>
    <tripinfo id="NS_371" depart="371.00" departLane="2i_0" departPos="4.10" departSpeed="0.00" departDelay="0.00" arrival="447.00" arrivalLane="1o_0" arrivalPos="492.80" arrivalSpeed="10.75" duration="76.00" routeLength="995.90" waitingTime="0.00" waitingCount="0" stopTime="0.00" timeLoss="9.05" rerouteNo="0" devices="tripinfo_NS_371" vType="car" speedFactor="1.07" vaporized=""/>
    <tripinfo id="NS_374" depart="375.00" departLane="2i_0" departPos="10.10" departSpeed="0.00" departDelay="1.00" arrival="456.00" arrivalLane="4o_0" arrivalPos="492.80" arrivalSpeed="11.18" duration="81.00" routeLength="984.53" waitingTime="0.00" waitingCount="0" stopTime="0.00" timeLoss="12.09" rerouteNo="0" devices="tripinfo_NS_374" vType="truck" speedFactor="1.02" vaporized=""/>
    <tripinfo id="WE_383" depart="383.00" departLane="1i_0" departPos="4.10" departSpeed="0.00" departDelay="0.00" arrival="458.00" arrivalLane="4o_0" arrivalPos="492.80" arrivalSpeed="11.50" duration="75.00" routeLength="995.70" waitingTime="0.00" waitingCount="0" stopTime="0.00" timeLoss="11.80" rerouteNo="0" devices="tripinfo_WE_383" vType="car" speedFactor="1.12" vaporized=""/>
    <tripinfo id="NS_387" depart="389.00" departLane="2i_0" departPos="4.10" departSpeed="0.00" departDelay="2.00" arrival="460.00" arrivalLane="4o_0" arrivalPos="492.80" arrivalSpeed="11.55" duration="71.00" routeLength="990.53" waitingTime="0.00" waitingCount="0" stopTime="0.00" timeLoss="7.92" rerouteNo="0" devices="tripinfo_NS_387" vType="car" speedFactor="1.11" vaporized=""/>
    <tripinfo id="WE_385" depart="386.00" departLane="1i_0" departPos="4.10" departSpeed="0.00" departDelay="1.00" arrival="465.00" arrivalLane="2o_0" arrivalPos="492.80" arrivalSpeed="10.34" duration="79.00" routeLength="995.90" waitingTime="0.00" waitingCount="0" stopTime="0.00" timeLoss="8.57" rerouteNo="0" devices="tripinfo_WE_385" vType="car" speedFactor="1.00" vaporized=""/>