<?xml version="1.0" encoding="UTF-8"?>

<!-- generated on 2024-05-05 23:01:09 by Eclipse SUMO sumo Version 1.19.0
<configuration xmlns:xsi="http://www.w3.org/2001/XMLSchema-instance" xsi:noNamespaceSchemaLocation="http://sumo.dlr.de/xsd/sumoConfiguration.xsd">

    <input>
        <net-file value="twoone.net.xml"/>
        <route-files value="route_gen.rou.xml"/>
    </input>

    <output>
        <tripinfo-output value="tripinfo_epi439.xml"/>
    </output>

    <report>
        <no-warnings value="true"/>
    </report>

    <traci_server>
        <remote-port value="42739"/>
    </traci_server>

</configuration>
-->

<tripinfos xmlns:xsi="http://www.w3.org/2001/XMLSchema-instance" xsi:noNamespaceSchemaLocation="http://sumo.dlr.de/xsd/tripinfo_file.xsd">
    <tripinfo id="NS_5" depart="5.00" departLane="2i_0" departPos="4.10" departSpeed="0.00" departDelay="0.00" arrival="79.00" arrivalLane="4o_0" arrivalPos="492.80" arrivalSpeed="11.49" duration="74.00" routeLength="990.53" waitingTime="0.00" waitingCount="0" stopTime="0.00" timeLoss="7.44" rerouteNo="0" devices="tripinfo_NS_5" vType="car" speedFactor="1.06" vaporized=""/>
    <tripinfo id="NS_7" depart="8.00" departLane="2i_0" departPos="4.10" departSpeed="0.00" departDelay="1.00" arrival="86.00" arrivalLane="4o_0" arrivalPos="492.80" arrivalSpeed="10.47" duration="78.00" routeLength="990.53" waitingTime="0.00" waitingCount="0" stopTime="0.00" timeLoss="7.93" rerouteNo="0" devices="tripinfo_NS_7" vType="car" speedFactor="1.01" vaporized=""/>
    <tripinfo id="WE_6" depart="6.00" departLane="1i_0" departPos="4.10" departSpeed="0.00" departDelay="0.00" arrival="89.00" arrivalLane="3o_0" arrivalPos="492.80" arrivalSpeed="10.20" duration="83.00" routeLength="990.53" waitingTime="0.00" waitingCount="0" stopTime="0.00" timeLoss="7.68" rerouteNo="0" devices="tripinfo_WE_6" vType="car" speedFactor="0.94" vaporized=""/>
    <tripinfo id="EW_10" depart="10.00" departLane="4i_0" departPos="4.10" departSpeed="0.00" departDelay="0.00" arrival="91.00" arrivalLane="3o_0" arrivalPos="492.80" arrivalSpeed="11.57" duration="81.00" routeLength="995.90" waitingTime="0.00" waitingCount="0" stopTime="0.00" timeLoss="14.80" rerouteNo="0" devices="tripinfo_EW_10" vType="car" speedFactor="1.08" vaporized=""/>
    <tripinfo id="WE_17" depart="17.00" departLane="1i_0" departPos="4.10" departSpeed="0.00" departDelay="0.00" arrival="96.00" arrivalLane="4o_0" arrivalPos="492.80" arrivalSpeed="10.33" duration="79.00" routeLength="995.70" waitingTime="0.00" waitingCount="0" stopTime="0.00" timeLoss="10.19" rerouteNo="0" devices="tripinfo_WE_17" vType="car" speedFactor="1.03" vaporized=""/>
    <tripinfo id="SN_26" depart="26.00" departLane="3i_0" departPos="4.10" departSpeed="0.00" departDelay="0.00" arrival="108.00" arrivalLane="2o_0" arrivalPos="492.80" arrivalSpeed="11.48" duration="82.00" routeLength="990.53" waitingTime="1.00" waitingCount="1" stopTime="0.00" timeLoss="13.91" rerouteNo="0" devices="tripinfo_SN_26" vType="car" speedFactor="1.05" vaporized=""/>
    <tripinfo id="WE_29" depart="29.00" departLane="1i_0" departPos="4.10" departSpeed="0.00" departDelay="0.00" arrival="120.00" arrivalLane="3o_0" arrivalPos="492.80" arrivalSpeed="8.98" duration="91.00" routeLength="990.53" waitingTime="0.00" waitingCount="0" stopTime="0.00" timeLoss="11.35" rerouteNo="0" devices="tripinfo_WE_29" vType="car" speedFactor="0.89" vaporized=""/>
    <tripinfo id="WE_25" depart="25.00" departLane="1i_0" departPos="4.10" departSpeed="0.00" departDelay="0.00" arrival="122.00" arrivalLane="2o_0" arrivalPos="492.80" arrivalSpeed="8.16" duration="97.00" routeLength="995.90" waitingTime="0.00" waitingCount="0" stopTime="0.00" timeLoss="11.73" rerouteNo="0" devices="tripinfo_WE_25" vType="car" speedFactor="0.83" vaporized=""/>
    <tripinfo id="SN_29" depart="29.00" departLane="3i_0" departPos="4.10" departSpeed="0.00" departDelay="0.00" arrival="122.00" arrivalLane="1o_0" arrivalPos="492.80" arrivalSpeed="10.11" duration="93.00" routeLength="995.70" waitingTime="1.00" waitingCount="1" stopTime="0.00" timeLoss="17.46" rerouteNo="0" devices="tripinfo_SN_29" vType="car" speedFactor="0.94" vaporized=""/>
    <tripinfo id="WE_40" depart="40.00" departLane="1i_0" departPos="4.10" departSpeed="0.00" departDelay="0.00" arrival="122.00" arrivalLane="3o_0" arrivalPos="492.80" arrivalSpeed="10.98" duration="82.00" routeLength="990.53" waitingTime="0.00" waitingCount="0" stopTime="0.00" timeLoss="14.00" rerouteNo="0" devices="tripinfo_WE_40" vType="car" speedFactor="1.05" vaporized=""/>
    <tripinfo id="SN_35" depart="35.00" departLane="3i_0" departPos="4.10" departSpeed="0.00" departDelay="0.00" arrival="124.00" arrivalLane="2o_0" arrivalPos="492.80" arrivalSpeed="11.59" duration="89.00" routeLength="990.53" waitingTime="3.00" waitingCount="1" stopTime="0.00" timeLoss="23.73" rerouteNo="0" devices="tripinfo_SN_35" vType="car" speedFactor="1.09" vaporized=""/>
    <tripinfo id="EW_33" depart="33.00" departLane="4i_0" departPos="4.10" departSpeed="0.00" departDelay="0.00" arrival="134.00" arrivalLane="2o_0" arrivalPos="492.80" arrivalSpeed="8.95" duration="101.00" routeLength="995.70" waitingTime="4.00" waitingCount="1" stopTime="0.00" timeLoss="18.03" rerouteNo="0" devices="tripinfo_EW_33" vType="car" speedFactor="0.86" vaporized=""/>
    <tripinfo id="SN_39" depart="39.00" departLane="3i_0" departPos="4.10" departSpeed="0.00" departDelay="0.00" arrival="136.00" arrivalLane="2o_0" arrivalPos="492.80" arrivalSpeed="11.22" duration="97.00" routeLength="990.53" waitingTime="2.00" waitingCount="2" stopTime="0.00" timeLoss="27.63" rerouteNo="0" devices="tripinfo_SN_39" vType="car" speedFactor="1.03" vaporized=""/>
    <tripinfo id="EW_47" depart="47.00" departLane="4i_0" departPos="4.10" departSpeed="0.00" departDelay="0.00" arrival="137.00" arrivalLane="2o_0" arrivalPos="492.80" arrivalSpeed="9.88" duration="90.00" routeLength="995.70" waitingTime="0.00" waitingCount="0" stopTime="0.00" timeLoss="18.61" rerouteNo="0" devices="tripinfo_EW_47" vType="car" speedFactor="0.99" vaporized=""/>
    <tripinfo id="WE_51" depart="51.00" departLane="1i_0" departPos="4.10" departSpeed="0.00" departDelay="0.00" arrival="139.00" arrivalLane="3o_0" arrivalPos="492.80" arrivalSpeed="8.81" duration="88.00" routeLength="990.53" waitingTime="0.00" waitingCount="0" stopTime="0.00" timeLoss="7.82" rerouteNo="0" devices="tripinfo_WE_51" vType="car" speedFactor="0.88" vaporized=""/>
    <tripinfo id="WE_53" depart="54.00" departLane="1i_0" departPos="4.10" departSpeed="0.00" departDelay="1.00" arrival="141.00" arrivalLane="3o_0" arrivalPos="492.80" arrivalSpeed="10.07" duration="87.00" routeLength="990.53" waitingTime="0.00" waitingCount="0" stopTime="0.00" timeLoss="11.53" rerouteNo="0" devices="tripinfo_WE_53" vType="car" speedFactor="0.94" vaporized=""/>
    <tripinfo id="WE_54" depart="56.00" departLane="1i_0" departPos="4.10" departSpeed="0.00" departDelay="2.00" arrival="143.00" arrivalLane="3o_0" arrivalPos="492.80" arrivalSpeed="11.74" duration="87.00" routeLength="990.53" waitingTime="0.00" waitingCount="0" stopTime="0.00" timeLoss="25.65" rerouteNo="0" devices="tripinfo_WE_54" vType="car" speedFactor="1.16" vaporized=""/>
    <tripinfo id="NS_44" depart="44.00" departLane="2i_0" departPos="4.10" departSpeed="0.00" departDelay="0.00" arrival="144.00" arrivalLane="3o_0" arrivalPos="492.80" arrivalSpeed="11.78" duration="100.00" routeLength="995.70" waitingTime="13.00" waitingCount="2" stopTime="0.00" timeLoss="37.08" rerouteNo="0" devices="tripinfo_NS_44" vType="car" speedFactor="1.12" vaporized=""/>
    <tripinfo id="NS_48" depart="48.00" departLane="2i_0" departPos="4.10" departSpeed="0.00" departDelay="0.00" arrival="147.00" arrivalLane="3o_0" arrivalPos="492.80" arrivalSpeed="9.41" duration="99.00" routeLength="995.70" waitingTime="7.00" waitingCount="1" stopTime="0.00" timeLoss="22.33" rerouteNo="0" devices="tripinfo_NS_48" vType="car" speedFactor="0.93" vaporized=""/>
    <tripinfo id="WE_64" depart="64.00" departLane="1i_0" departPos="4.10" departSpeed="0.00" departDelay="0.00" arrival="147.00" arrivalLane="4o_0" arrivalPos="492.80" arrivalSpeed="10.12" duration="83.00" routeLength="995.70" waitingTime="0.00" waitingCount="0" stopTime="0.00" timeLoss="13.06" rerouteNo="0" devices="tripinfo_WE_64" vType="car" speedFactor="1.02" vaporized=""/>
    <tripinfo id="NS_52" depart="52.00" departLane="2i_0" departPos="4.10" departSpeed="0.00" departDelay="0.00" arrival="149.00" arrivalLane="3o_0" arrivalPos="492.80" arrivalSpeed="9.59" duration="97.00" routeLength="995.70" waitingTime="5.00" waitingCount="1" stopTime="0.00" timeLoss="21.66" rerouteNo="0" devices="tripinfo_NS_52" vType="car" speedFactor="0.94" vaporized=""/>
    <tripinfo id="WE_67" depart="67.00" departLane="1i_0" departPos="4.10" departSpeed="0.00" departDelay="0.00" arrival="149.00" arrivalLane="4o_0" arrivalPos="492.80" arrivalSpeed="10.64" duration="82.00" routeLength="995.70" waitingTime="0.00" waitingCount="0" stopTime="0.00" timeLoss="11.61" rerouteNo="0" devices="tripinfo_WE_67" vType="car" speedFactor="1.01" vaporized=""/>
    <tripinfo id="NS_79" depart="80.00" departLane="2i_0" departPos="4.10" departSpeed="0.00" departDelay="1.00" arrival="154.00" arrivalLane="1o_0" arrivalPos="492.80" arrivalSpeed="12.25" duration="74.00" routeLength="995.90" waitingTime="0.00" waitingCount="0" stopTime="0.00" timeLoss="11.34" rerouteNo="0" devices="tripinfo_NS_79" vType="car" speedFactor="1.13" vaporized=""/>
    <tripinfo id="NS_71" depart="71.00" departLane="2i_0" departPos="4.10" departSpeed="0.00" departDelay="0.00" arrival="159.00" arrivalLane="4o_0" arrivalPos="492.80" arrivalSpeed="8.89" duration="88.00" routeLength="990.53" waitingTime="0.00" waitingCount="0" stopTime="0.00" timeLoss="8.68" rerouteNo="0" devices="tripinfo_NS_71" vType="car" speedFactor="0.89" vaporized=""/>
    <tripinfo id="NS_77" depart="77.00" departLane="2i_0" departPos="4.10" departSpeed="0.00" departDelay="0.00" arrival="160.00" arrivalLane="3o_0" arrivalPos="492.80" arrivalSpeed="9.39" duration="83.00" routeLength="995.70" waitingTime="0.00" waitingCount="0" stopTime="0.00" timeLoss="8.53" rerouteNo="0" devices="tripinfo_NS_77" vType="car" speedFactor="0.95" vaporized=""/>
    <tripinfo id="EW_71" depart="71.00" departLane="4i_0" departPos="4.10" departSpeed="0.00" departDelay="0.00" arrival="170.00" arrivalLane="3o_0" arrivalPos="492.80" arrivalSpeed="10.43" duration="99.00" routeLength="995.90" waitingTime="13.00" waitingCount="1" stopTime="0.00" timeLoss="26.63" rerouteNo="0" devices="tripinfo_EW_71" vType="car" speedFactor="0.97" vaporized=""/>
    <tripinfo id="WE_74" depart="74.00" departLane="1i_0" departPos="4.10" departSpeed="0.00" departDelay="0.00" arrival="171.00" arrivalLane="4o_0" arrivalPos="492.80" arrivalSpeed="9.43" duration="97.00" routeLength="995.70" waitingTime="2.00" waitingCount="1" stopTime="0.00" timeLoss="15.86" rerouteNo="0" devices="tripinfo_WE_74" vType="car" speedFactor="0.87" vaporized=""/>
    <tripinfo id="SN_80" depart="80.00" departLane="3i_0" departPos="4.10" departSpeed="0.00" departDelay="0.00" arrival="177.00" arrivalLane="4o_0" arrivalPos="492.80" arrivalSpeed="9.59" duration="97.00" routeLength="995.90" waitingTime="5.00" waitingCount="2" stopTime="0.00" timeLoss="21.33" rerouteNo="0" devices="tripinfo_SN_80" vType="car" speedFactor="0.93" vaporized=""/>
    <tripinfo id="SN_73" depart="73.00" departLane="3i_0" departPos="4.10" departSpeed="0.00" departDelay="0.00" arrival="179.00" arrivalLane="2o_0" arrivalPos="492.80" arrivalSpeed="9.14" duration="106.00" routeLength="990.53" waitingTime="6.00" waitingCount="1" stopTime="0.00" timeLoss="20.31" rerouteNo="0" devices="tripinfo_SN_73" vType="car" speedFactor="0.83" vaporized=""/>
    <tripinfo id="EW_74" depart="74.00" departLane="4i_0" departPos="4.10" departSpeed="0.00" departDelay="0.00" arrival="179.00" arrivalLane="1o_0" arrivalPos="492.80" arrivalSpeed="9.33" duration="105.00" routeLength="990.53" waitingTime="9.00" waitingCount="1" stopTime="0.00" timeLoss="27.67" rerouteNo="0" devices="tripinfo_EW_74" vType="car" speedFactor="0.92" vaporized=""/>
    <tripinfo id="SN_87" depart="87.00" departLane="3i_0" departPos="4.10" departSpeed="0.00" departDelay="0.00" arrival="179.00" arrivalLane="4o_0" arrivalPos="492.80" arrivalSpeed="11.85" duration="92.00" routeLength="995.90" waitingTime="4.00" waitingCount="2" stopTime="0.00" timeLoss="30.44" rerouteNo="0" devices="tripinfo_SN_87" vType="car" speedFactor="1.15" vaporized=""/>
    <tripinfo id="NS_101" depart="101.00" departLane="2i_0" departPos="4.10" departSpeed="0.00" departDelay="0.00" arrival="181.00" arrivalLane="1o_0" arrivalPos="492.80" arrivalSpeed="10.19" duration="80.00" routeLength="995.90" waitingTime="0.00" waitingCount="0" stopTime="0.00" timeLoss="8.48" rerouteNo="0" devices="tripinfo_NS_101" vType="car" speedFactor="0.99" vaporized=""/>
    <tripinfo id="EW_84" depart="84.00" departLane="4i_0" departPos="10.10" departSpeed="0.00" departDelay="0.00" arrival="184.00" arrivalLane="1o_0" arrivalPos="492.80" arrivalSpeed="12.08" duration="100.00" routeLength="984.53" waitingTime="6.00" waitingCount="1" stopTime="0.00" timeLoss="33.75" rerouteNo="0" devices="tripinfo_EW_84" vType="truck" speedFactor="1.09" vaporized=""/>
    <tripinfo id="SN_89" depart="91.00" departLane="3i_0" departPos="4.10" departSpeed="0.00" departDelay="2.00" arrival="186.00" arrivalLane="4o_0" arrivalPos="492.80" arrivalSpeed="10.40" duration="95.00" routeLength="995.90" waitingTime="2.00" waitingCount="1" stopTime="0.00" timeLoss="24.42" rerouteNo="0" devices="tripinfo_SN_89" vType="car" speedFactor="1.01" vaporized=""/>
    <tripinfo id="SN_90" depart="94.00" departLane="3i_0" departPos="4.10" departSpeed="0.00" departDelay="4.00" arrival="188.00" arrivalLane="4o_0" arrivalPos="492.80" arrivalSpeed="12.57" duration="94.00" routeLength="995.90" waitingTime="3.00" waitingCount="2" stopTime="0.00" timeLoss="33.05" rerouteNo="0" devices="tripinfo_SN_90" vType="car" speedFactor="1.17" vaporized=""/>
    <tripinfo id="NS_111" depart="112.00" departLane="2i_0" departPos="4.10" departSpeed="0.00" departDelay="1.00" arrival="190.00" arrivalLane="1o_0" arrivalPos="492.80" arrivalSpeed="12.57" duration="78.00" routeLength="995.90" waitingTime="0.00" waitingCount="0" stopTime="0.00" timeLoss="17.57" rerouteNo="0" devices="tripinfo_NS_111" vType="car" speedFactor="1.18" vaporized=""/>
    <tripinfo id="NS_110" depart="110.00" departLane="2i_0" departPos="4.10" departSpeed="0.00" departDelay="0.00" arrival="192.00" arrivalLane="3o_0" arrivalPos="492.80" arrivalSpeed="10.52" duration="82.00" routeLength="995.70" waitingTime="0.00" waitingCount="0" stopTime="0.00" timeLoss="9.50" rerouteNo="0" devices="tripinfo_NS_110" vType="car" speedFactor="0.97" vaporized=""/>
    <tripinfo id="NS_112" depart="115.00" departLane="2i_0" departPos="4.10" departSpeed="0.00" departDelay="3.00" arrival="194.00" arrivalLane="4o_0" arrivalPos="492.80" arrivalSpeed="11.71" duration="79.00" routeLength="990.53" waitingTime="0.00" waitingCount="0" stopTime="0.00" timeLoss="15.07" rerouteNo="0" devices="tripinfo_NS_112" vType="car" speedFactor="1.10" vaporized=""/>
    <tripinfo id="SN_101" depart="101.00" departLane="3i_0" departPos="4.10" departSpeed="0.00" departDelay="0.00" arrival="196.00" arrivalLane="2o_0" arrivalPos="492.80" arrivalSpeed="10.43" duration="95.00" routeLength="990.53" waitingTime="3.00" waitingCount="2" stopTime="0.00" timeLoss="26.06" rerouteNo="0" devices="tripinfo_SN_101" vType="car" speedFactor="1.02" vaporized=""/>
    <tripinfo id="EW_116" depart="116.00" departLane="4i_0" departPos="4.10" departSpeed="0.00" departDelay="0.00" arrival="199.00" arrivalLane="2o_0" arrivalPos="492.80" arrivalSpeed="11.32" duration="83.00" routeLength="995.70" waitingTime="1.00" waitingCount="1" stopTime="0.00" timeLoss="14.38" rerouteNo="0" devices="tripinfo_EW_116" vType="car" speedFactor="1.03" vaporized=""/>
    <tripinfo id="SN_120" depart="120.00" departLane="3i_0" departPos="4.10" departSpeed="0.00" departDelay="0.00" arrival="201.00" arrivalLane="2o_0" arrivalPos="492.80" arrivalSpeed="11.80" duration="81.00" routeLength="990.53" waitingTime="1.00" waitingCount="1" stopTime="0.00" timeLoss="16.24" rerouteNo="0" devices="tripinfo_SN_120" vType="car" speedFactor="1.09" vaporized=""/>
    <tripinfo id="EW_122" depart="122.00" departLane="4i_0" departPos="4.10" departSpeed="0.00" departDelay="0.00" arrival="205.00" arrivalLane="3o_0" arrivalPos="492.80" arrivalSpeed="10.90" duration="83.00" routeLength="995.90" waitingTime="0.00" waitingCount="0" stopTime="0.00" timeLoss="14.54" rerouteNo="0" devices="tripinfo_EW_122" vType="car" speedFactor="1.04" vaporized=""/>
    <tripinfo id="WE_115" depart="115.00" departLane="1i_0" departPos="4.10" departSpeed="0.00" departDelay="0.00" arrival="209.00" arrivalLane="4o_0" arrivalPos="492.80" arrivalSpeed="9.65" duration="94.00" routeLength="995.70" waitingTime="2.00" waitingCount="1" stopTime="0.00" timeLoss="15.34" rerouteNo="0" devices="tripinfo_WE_115" vType="car" speedFactor="0.90" vaporized=""/>
    <tripinfo id="WE_120" depart="120.00" departLane="1i_0" departPos="4.10" departSpeed="0.00" departDelay="0.00" arrival="211.00" arrivalLane="3o_0" arrivalPos="492.80" arrivalSpeed="10.29" duration="91.00" routeLength="990.53" waitingTime="3.00" waitingCount="1" stopTime="0.00" timeLoss="17.58" rerouteNo="0" devices="tripinfo_WE_120" vType="car" speedFactor="0.96" vaporized=""/>
    <tripinfo id="WE_123" depart="123.00" departLane="1i_0" departPos="4.10" departSpeed="0.00" departDelay="0.00" arrival="211.00" arrivalLane="4o_0" arrivalPos="492.80" arrivalSpeed="10.76" duration="88.00" routeLength="995.70" waitingTime="2.00" waitingCount="1" stopTime="0.00" timeLoss="19.86" rerouteNo="0" devices="tripinfo_WE_123" vType="car" speedFactor="1.04" vaporized=""/>
    <tripinfo id="SN_123" depart="123.00" departLane="3i_0" departPos="10.10" departSpeed="0.00" departDelay="0.00" arrival="215.00" arrivalLane="2o_0" arrivalPos="492.80" arrivalSpeed="11.19" duration="92.00" routeLength="984.53" waitingTime="2.00" waitingCount="2" stopTime="0.00" timeLoss="24.50" rerouteNo="0" devices="tripinfo_SN_123" vType="truck" speedFactor="1.04" vaporized=""/>
    <tripinfo id="SN_135" depart="135.00" departLane="3i_0" departPos="4.10" departSpeed="0.00" departDelay="0.00" arrival="221.00" arrivalLane="2o_0" arrivalPos="492.80" arrivalSpeed="10.53" duration="86.00" routeLength="990.53" waitingTime="0.00" waitingCount="0" stopTime="0.00" timeLoss="15.28" rerouteNo="0" devices="tripinfo_SN_135" vType="car" speedFactor="1.00" vaporized=""/>
    <tripinfo id="WE_142" depart="142.00" departLane="1i_0" departPos="4.10" departSpeed="0.00" departDelay="0.00" arrival="229.00" arrivalLane="3o_0" arrivalPos="492.80" arrivalSpeed="9.55" duration="87.00" routeLength="990.53" waitingTime="0.00" waitingCount="0" stopTime="0.00" timeLoss="8.10" rerouteNo="0" devices="tripinfo_WE_142" vType="car" speedFactor="0.90" vaporized=""/>
    <tripinfo id="WE_146" depart="149.00" departLane="1i_0" departPos="10.10" departSpeed="0.00" departDelay="3.00" arrival="231.00" arrivalLane="3o_0" arrivalPos="492.80" arrivalSpeed="10.97" duration="82.00" routeLength="984.53" waitingTime="0.00" waitingCount="0" stopTime="0.00" timeLoss="15.73" rerouteNo="0" devices="tripinfo_WE_146" vType="truck" speedFactor="1.08" vaporized=""/>
    <tripinfo id="SN_142" depart="144.00" departLane="3i_0" departPos="4.10" departSpeed="0.00" departDelay="2.00" arrival="235.00" arrivalLane="2o_0" arrivalPos="492.80" arrivalSpeed="9.50" duration="91.00" routeLength="990.53" waitingTime="0.00" waitingCount="0" stopTime="0.00" timeLoss="9.97" rerouteNo="0" devices="tripinfo_SN_142" vType="car" speedFactor="0.88" vaporized=""/>
    <tripinfo id="WE_145" depart="145.00" departLane="1i_0" departPos="4.10" departSpeed="0.00" departDelay="0.00" arrival="238.00" arrivalLane="4o_0" arrivalPos="492.80" arrivalSpeed="8.30" duration="93.00" routeLength="995.70" waitingTime="0.00" waitingCount="0" stopTime="0.00" timeLoss="9.86" rerouteNo="0" devices="tripinfo_WE_145" vType="car" speedFactor="0.85" vaporized=""/>
    <tripinfo id="SN_145" depart="147.00" departLane="3i_0" departPos="4.10" departSpeed="0.00" departDelay="2.00" arrival="239.00" arrivalLane="2o_0" arrivalPos="492.80" arrivalSpeed="8.74" duration="92.00" routeLength="990.53" waitingTime="0.00" waitingCount="0" stopTime="0.00" timeLoss="9.66" rerouteNo="0" devices="tripinfo_SN_145" vType="car" speedFactor="0.85" vaporized=""/>
    <tripinfo id="EW_161" depart="161.00" departLane="4i_0" departPos="4.10" departSpeed="0.00" departDelay="0.00" arrival="241.00" arrivalLane="2o_0" arrivalPos="492.80" arrivalSpeed="11.67" duration="80.00" routeLength="995.70" waitingTime="0.00" waitingCount="0" stopTime="0.00" timeLoss="15.15" rerouteNo="0" devices="tripinfo_EW_161" vType="car" speedFactor="1.10" vaporized=""/>
    <tripinfo id="NS_162" depart="162.00" departLane="2i_0" departPos="4.10" departSpeed="0.00" departDelay="0.00" arrival="242.00" arrivalLane="1o_0" arrivalPos="492.80" arrivalSpeed="10.09" duration="80.00" routeLength="995.90" waitingTime="0.00" waitingCount="0" stopTime="0.00" timeLoss="9.21" rerouteNo="0" devices="tripinfo_NS_162" vType="car" speedFactor="1.00" vaporized=""/>
    <tripinfo id="SN_151" depart="151.00" departLane="3i_0" departPos="10.10" departSpeed="0.00" departDelay="0.00" arrival="246.00" arrivalLane="1o_0" arrivalPos="492.80" arrivalSpeed="10.85" duration="95.00" routeLength="989.70" waitingTime="4.00" waitingCount="2" stopTime="0.00" timeLoss="24.97" rerouteNo="0" devices="tripinfo_SN_151" vType="truck" speedFactor="1.01" vaporized=""/>
    <tripinfo id="NS_163" depart="164.00" departLane="2i_0" departPos="4.10" departSpeed="0.00" departDelay="1.00" arrival="250.00" arrivalLane="1o_0" arrivalPos="492.80" arrivalSpeed="9.92" duration="86.00" routeLength="995.90" waitingTime="1.00" waitingCount="1" stopTime="0.00" timeLoss="15.08" rerouteNo="0" devices="tripinfo_NS_163" vType="car" speedFactor="1.00" vaporized=""/>
    <tripinfo id="NS_173" depart="173.00" departLane="2i_0" departPos="4.10" departSpeed="0.00" departDelay="0.00" arrival="253.00" arrivalLane="3o_0" arrivalPos="492.80" arrivalSpeed="10.56" duration="80.00" routeLength="995.70" waitingTime="0.00" waitingCount="0" stopTime="0.00" timeLoss="10.58" rerouteNo="0" devices="tripinfo_NS_173" vType="car" speedFactor="1.02" vaporized=""/>
    <tripinfo id="WE_174" depart="174.00" departLane="1i_0" departPos="4.10" departSpeed="0.00" departDelay="0.00" arrival="257.00" arrivalLane="4o_0" arrivalPos="492.80" arrivalSpeed="9.49" duration="83.00" routeLength="995.70" waitingTime="0.00" waitingCount="0" stopTime="0.00" timeLoss="9.63" rerouteNo="0" devices="tripinfo_WE_174" vType="car" speedFactor="0.97" vaporized=""/>
    <tripinfo id="EW_171" depart="171.00" departLane="4i_0" departPos="4.10" departSpeed="0.00" departDelay="0.00" arrival="258.00" arrivalLane="3o_0" arrivalPos="492.80" arrivalSpeed="11.53" duration="87.00" routeLength="995.90" waitingTime="10.00" waitingCount="1" stopTime="0.00" timeLoss="24.84" rerouteNo="0" devices="tripinfo_EW_171" vType="car" speedFactor="1.14" vaporized=""/>
    <tripinfo id="WE_185" depart="185.00" departLane="1i_0" departPos="4.10" departSpeed="0.00" departDelay="0.00" arrival="267.00" arrivalLane="2o_0" arrivalPos="492.80" arrivalSpeed="10.24" duration="82.00" routeLength="995.90" waitingTime="0.00" waitingCount="0" stopTime="0.00" timeLoss="9.65" rerouteNo="0" devices="tripinfo_WE_185" vType="car" speedFactor="0.99" vaporized=""/>
    <tripinfo id="SN_169" depart="170.00" departLane="3i_0" departPos="10.10" departSpeed="0.00" departDelay="1.00" arrival="270.00" arrivalLane="1o_0" arrivalPos="492.80" arrivalSpeed="10.06" duration="100.00" routeLength="989.70" waitingTime="4.00" waitingCount="2" stopTime="0.00" timeLoss="25.16" rerouteNo="0" devices="tripinfo_SN_169" vType="truck" speedFactor="0.95" vaporized=""/>
    <tripinfo id="NS_189" depart="189.00" departLane="2i_0" departPos="4.10" departSpeed="0.00" departDelay="0.00" arrival="275.00" arrivalLane="4o_0" arrivalPos="492.80" arrivalSpeed="9.84" duration="86.00" routeLength="990.53" waitingTime="0.00" waitingCount="0" stopTime="0.00" timeLoss="8.31" rerouteNo="0" devices="tripinfo_NS_189" vType="car" speedFactor="0.91" vaporized=""/>
    <tripinfo id="SN_178" depart="178.00" departLane="3i_0" departPos="4.10" departSpeed="0.00" departDelay="0.00" arrival="277.00" arrivalLane="4o_0" arrivalPos="492.80" arrivalSpeed="11.95" duration="99.00" routeLength="995.90" waitingTime="4.00" waitingCount="2" stopTime="0.00" timeLoss="33.27" rerouteNo="0" devices="tripinfo_SN_178" vType="car" speedFactor="1.08" vaporized=""/>
    <tripinfo id="NS_193" depart="193.00" departLane="2i_0" departPos="10.10" departSpeed="0.00" departDelay="0.00" arrival="277.00" arrivalLane="1o_0" arrivalPos="492.80" arrivalSpeed="11.14" duration="84.00" routeLength="989.90" waitingTime="0.00" waitingCount="0" stopTime="0.00" timeLoss="14.29" rerouteNo="0" devices="tripinfo_NS_193" vType="truck" speedFactor="1.01" vaporized=""/>
    <tripinfo id="SN_179" depart="181.00" departLane="3i_0" departPos="4.10" departSpeed="0.00" departDelay="2.00" arrival="278.00" arrivalLane="2o_0" arrivalPos="492.80" arrivalSpeed="11.69" duration="97.00" routeLength="990.53" waitingTime="5.00" waitingCount="3" stopTime="0.00" timeLoss="34.07" rerouteNo="0" devices="tripinfo_SN_179" vType="car" speedFactor="1.12" vaporized=""/>
    <tripinfo id="WE_189" depart="190.00" departLane="1i_0" departPos="4.10" departSpeed="0.00" departDelay="1.00" arrival="279.00" arrivalLane="3o_0" arrivalPos="492.80" arrivalSpeed="9.65" duration="89.00" routeLength="990.53" waitingTime="0.00" waitingCount="0" stopTime="0.00" timeLoss="8.86" rerouteNo="0" devices="tripinfo_WE_189" vType="car" speedFactor="0.88" vaporized=""/>
    <tripinfo id="EW_180" depart="180.00" departLane="4i_0" departPos="4.10" departSpeed="0.00" departDelay="0.00" arrival="281.00" arrivalLane="3o_0" arrivalPos="492.80" arrivalSpeed="10.30" duration="101.00" routeLength="995.90" waitingTime="8.00" waitingCount="2" stopTime="0.00" timeLoss="30.84" rerouteNo="0" devices="tripinfo_EW_180" vType="car" speedFactor="1.02" vaporized=""/>
    <tripinfo id="WE_193" depart="193.00" departLane="1i_0" departPos="4.10" departSpeed="0.00" departDelay="0.00" arrival="282.00" arrivalLane="3o_0" arrivalPos="492.80" arrivalSpeed="10.97" duration="89.00" routeLength="990.53" waitingTime="2.00" waitingCount="1" stopTime="0.00" timeLoss="20.26" rerouteNo="0" devices="tripinfo_WE_193" vType="car" speedFactor="1.02" vaporized=""/>
    <tripinfo id="WE_206" depart="206.00" departLane="1i_0" departPos="4.10" departSpeed="0.00" departDelay="0.00" arrival="289.00" arrivalLane="3o_0" arrivalPos="492.80" arrivalSpeed="9.97" duration="83.00" routeLength="990.53" waitingTime="0.00" waitingCount="0" stopTime="0.00" timeLoss="7.63" rerouteNo="0" devices="tripinfo_WE_206" vType="car" speedFactor="0.94" vaporized=""/>
    <tripinfo id="SN_187" depart="187.00" departLane="3i_0" departPos="4.10" departSpeed="0.00" departDelay="0.00" arrival="294.00" arrivalLane="4o_0" arrivalPos="492.80" arrivalSpeed="10.39" duration="107.00" routeLength="995.90" waitingTime="3.00" waitingCount="2" stopTime="0.00" timeLoss="30.94" rerouteNo="0" devices="tripinfo_SN_187" vType="car" speedFactor="0.94" vaporized=""/>
    <tripinfo id="EW_214" depart="214.00" departLane="4i_0" departPos="4.10" departSpeed="0.00" departDelay="0.00" arrival="296.00" arrivalLane="1o_0" arrivalPos="492.80" arrivalSpeed="10.52" duration="82.00" routeLength="990.53" waitingTime="0.00" waitingCount="0" stopTime="0.00" timeLoss="7.95" rerouteNo="0" devices="tripinfo_EW_214" vType="car" speedFactor="0.96" vaporized=""/>
    <tripinfo id="NS_216" depart="216.00" departLane="2i_0" departPos="4.10" departSpeed="0.00" departDelay="0.00" arrival="296.00" arrivalLane="3o_0" arrivalPos="492.80" arrivalSpeed="11.41" duration="80.00" routeLength="995.70" waitingTime="0.00" waitingCount="0" stopTime="0.00" timeLoss="10.82" rerouteNo="0" devices="tripinfo_NS_216" vType="car" speedFactor="1.03" vaporized=""/>
    <tripinfo id="SN_191" depart="192.00" departLane="3i_0" departPos="4.10" departSpeed="0.00" departDelay="1.00" arrival="300.00" arrivalLane="2o_0" arrivalPos="492.80" arrivalSpeed="9.57" duration="108.00" routeLength="990.53" waitingTime="2.00" waitingCount="2" stopTime="0.00" timeLoss="31.17" rerouteNo="0" devices="tripinfo_SN_191" vType="car" speedFactor="0.91" vaporized=""/>
    <tripinfo id="SN_192" depart="195.00" departLane="3i_0" departPos="10.10" departSpeed="0.00" departDelay="3.00" arrival="306.00" arrivalLane="4o_0" arrivalPos="492.80" arrivalSpeed="10.87" duration="111.00" routeLength="989.90" waitingTime="2.00" waitingCount="2" stopTime="0.00" timeLoss="41.47" rerouteNo="0" devices="tripinfo_SN_192" vType="truck" speedFactor="1.02" vaporized=""/>
    <tripinfo id="WE_222" depart="222.00" departLane="1i_0" departPos="10.10" departSpeed="0.00" departDelay="0.00" arrival="312.00" arrivalLane="3o_0" arrivalPos="492.80" arrivalSpeed="10.58" duration="90.00" routeLength="984.53" waitingTime="1.00" waitingCount="1" stopTime="0.00" timeLoss="19.03" rerouteNo="0" devices="tripinfo_WE_222" vType="truck" speedFactor="0.99" vaporized=""/>
    <tripinfo id="NS_228" depart="228.00" departLane="2i_0" departPos="4.10" departSpeed="0.00" departDelay="0.00" arrival="312.00" arrivalLane="4o_0" arrivalPos="492.80" arrivalSpeed="10.15" duration="84.00" routeLength="990.53" waitingTime="0.00" waitingCount="0" stopTime="0.00" timeLoss="13.80" rerouteNo="0" devices="tripinfo_NS_228" vType="car" speedFactor="1.01" vaporized=""/>