<?xml version="1.0" encoding="UTF-8"?>

<!-- generated on 2024-05-05 22:35:35 by Eclipse SUMO sumo Version 1.19.0
<configuration xmlns:xsi="http://www.w3.org/2001/XMLSchema-instance" xsi:noNamespaceSchemaLocation="http://sumo.dlr.de/xsd/sumoConfiguration.xsd">

    <input>
        <net-file value="twoone.net.xml"/>
        <route-files value="route_gen.rou.xml"/>
    </input>

    <output>
        <tripinfo-output value="tripinfo_epi323.xml"/>
    </output>

    <report>
        <no-warnings value="true"/>
    </report>

    <traci_server>
        <remote-port value="44659"/>
    </traci_server>

</configuration>
-->

<tripinfos xmlns:xsi="http://www.w3.org/2001/XMLSchema-instance" xsi:noNamespaceSchemaLocation="http://sumo.dlr.de/xsd/tripinfo_file.xsd">
    <tripinfo id="NS_0" depart="0.00" departLane="2i_0" departPos="4.10" departSpeed="0.00" departDelay="0.00" arrival="76.00" arrivalLane="3o_0" arrivalPos="492.80" arrivalSpeed="10.51" duration="76.00" routeLength="995.70" waitingTime="0.00" waitingCount="0" stopTime="0.00" timeLoss="8.93" rerouteNo="0" devices="tripinfo_NS_0" vType="car" speedFactor="1.06" vaporized=""/>
    <tripinfo id="NS_2" depart="3.00" departLane="2i_0" departPos="4.10" departSpeed="0.00" departDelay="1.00" arrival="84.00" arrivalLane="3o_0" arrivalPos="492.80" arrivalSpeed="10.04" duration="81.00" routeLength="995.70" waitingTime="0.00" waitingCount="0" stopTime="0.00" timeLoss="10.32" rerouteNo="0" devices="tripinfo_NS_2" vType="car" speedFactor="1.01" vaporized=""/>
    <tripinfo id="SN_1" depart="1.00" departLane="3i_0" departPos="4.10" departSpeed="0.00" departDelay="0.00" arrival="85.00" arrivalLane="2o_0" arrivalPos="492.80" arrivalSpeed="9.66" duration="84.00" routeLength="990.53" waitingTime="0.00" waitingCount="0" stopTime="0.00" timeLoss="8.38" rerouteNo="0" devices="tripinfo_SN_1" vType="car" speedFactor="0.94" vaporized=""/>
    <tripinfo id="WE_10" depart="10.00" departLane="1i_0" departPos="4.10" departSpeed="0.00" departDelay="0.00" arrival="87.00" arrivalLane="2o_0" arrivalPos="492.80" arrivalSpeed="10.18" duration="77.00" routeLength="995.90" waitingTime="0.00" waitingCount="0" stopTime="0.00" timeLoss="7.78" rerouteNo="0" devices="tripinfo_WE_10" vType="car" speedFactor="1.03" vaporized=""/>
    <tripinfo id="WE_27" depart="27.00" departLane="1i_0" departPos="4.10" departSpeed="0.00" departDelay="0.00" arrival="99.00" arrivalLane="3o_0" arrivalPos="492.80" arrivalSpeed="11.27" duration="72.00" routeLength="990.53" waitingTime="0.00" waitingCount="0" stopTime="0.00" timeLoss="7.40" rerouteNo="0" devices="tripinfo_WE_27" vType="car" speedFactor="1.09" vaporized=""/>
    <tripinfo id="NS_10" depart="10.00" departLane="2i_0" departPos="4.10" departSpeed="0.00" departDelay="0.00" arrival="104.00" arrivalLane="4o_0" arrivalPos="492.80" arrivalSpeed="8.49" duration="94.00" routeLength="990.53" waitingTime="0.00" waitingCount="0" stopTime="0.00" timeLoss="9.23" rerouteNo="0" devices="tripinfo_NS_10" vType="car" speedFactor="0.83" vaporized=""/>
    <tripinfo id="NS_11" depart="13.00" departLane="2i_0" departPos="4.10" departSpeed="0.00" departDelay="2.00" arrival="106.00" arrivalLane="4o_0" arrivalPos="492.80" arrivalSpeed="11.58" duration="93.00" routeLength="990.53" waitingTime="0.00" waitingCount="0" stopTime="0.00" timeLoss="25.19" rerouteNo="0" devices="tripinfo_NS_11" vType="car" speedFactor="1.05" vaporized=""/>
    <tripinfo id="NS_15" depart="16.00" departLane="2i_0" departPos="4.10" departSpeed="0.00" departDelay="1.00" arrival="108.00" arrivalLane="4o_0" arrivalPos="492.80" arrivalSpeed="9.79" duration="92.00" routeLength="990.53" waitingTime="0.00" waitingCount="0" stopTime="0.00" timeLoss="11.84" rerouteNo="0" devices="tripinfo_NS_15" vType="car" speedFactor="0.89" vaporized=""/>
    <tripinfo id="NS_16" depart="19.00" departLane="2i_0" departPos="4.10" departSpeed="0.00" departDelay="3.00" arrival="141.00" arrivalLane="3o_0" arrivalPos="492.80" arrivalSpeed="9.86" duration="122.00" routeLength="995.70" waitingTime="33.00" waitingCount="1" stopTime="0.00" timeLoss="46.15" rerouteNo="0" devices="tripinfo_NS_16" vType="car" speedFactor="0.94" vaporized=""/>
    <tripinfo id="NS_35" depart="35.00" departLane="2i_0" departPos="4.10" departSpeed="0.00" departDelay="0.00" arrival="141.00" arrivalLane="4o_0" arrivalPos="492.80" arrivalSpeed="9.94" duration="106.00" routeLength="990.53" waitingTime="21.00" waitingCount="1" stopTime="0.00" timeLoss="34.87" rerouteNo="0" devices="tripinfo_NS_35" vType="car" speedFactor="0.99" vaporized=""/>
    <tripinfo id="NS_50" depart="50.00" departLane="2i_0" departPos="4.10" departSpeed="0.00" departDelay="0.00" arrival="144.00" arrivalLane="4o_0" arrivalPos="492.80" arrivalSpeed="10.08" duration="94.00" routeLength="990.53" waitingTime="9.00" waitingCount="1" stopTime="0.00" timeLoss="24.03" rerouteNo="0" devices="tripinfo_NS_50" vType="car" speedFactor="1.01" vaporized=""/>
    <tripinfo id="NS_20" depart="22.00" departLane="2i_0" departPos="4.10" departSpeed="0.00" departDelay="2.00" arrival="148.00" arrivalLane="1o_0" arrivalPos="492.80" arrivalSpeed="8.89" duration="126.00" routeLength="995.90" waitingTime="29.00" waitingCount="1" stopTime="0.00" timeLoss="43.48" rerouteNo="0" devices="tripinfo_NS_20" vType="car" speedFactor="0.86" vaporized=""/>
    <tripinfo id="NS_39" depart="39.00" departLane="2i_0" departPos="4.10" departSpeed="0.00" departDelay="0.00" arrival="150.00" arrivalLane="1o_0" arrivalPos="492.80" arrivalSpeed="9.86" duration="111.00" routeLength="995.90" waitingTime="16.00" waitingCount="1" stopTime="0.00" timeLoss="35.23" rerouteNo="0" devices="tripinfo_NS_39" vType="car" speedFactor="0.94" vaporized=""/>
    <tripinfo id="NS_51" depart="53.00" departLane="2i_0" departPos="4.10" departSpeed="0.00" departDelay="2.00" arrival="153.00" arrivalLane="1o_0" arrivalPos="492.80" arrivalSpeed="8.58" duration="100.00" routeLength="995.90" waitingTime="3.00" waitingCount="1" stopTime="0.00" timeLoss="20.40" rerouteNo="0" devices="tripinfo_NS_51" vType="car" speedFactor="0.89" vaporized=""/>
    <tripinfo id="NS_57" depart="57.00" departLane="2i_0" departPos="4.10" departSpeed="0.00" departDelay="0.00" arrival="155.00" arrivalLane="1o_0" arrivalPos="492.80" arrivalSpeed="9.86" duration="98.00" routeLength="995.90" waitingTime="1.00" waitingCount="1" stopTime="0.00" timeLoss="20.38" rerouteNo="0" devices="tripinfo_NS_57" vType="car" speedFactor="0.92" vaporized=""/>
    <tripinfo id="NS_73" depart="73.00" departLane="2i_0" departPos="4.10" departSpeed="0.00" departDelay="0.00" arrival="157.00" arrivalLane="1o_0" arrivalPos="492.80" arrivalSpeed="9.92" duration="84.00" routeLength="995.90" waitingTime="0.00" waitingCount="0" stopTime="0.00" timeLoss="12.86" rerouteNo="0" devices="tripinfo_NS_73" vType="car" speedFactor="1.01" vaporized=""/>
    <tripinfo id="NS_76" depart="76.00" departLane="2i_0" departPos="4.10" departSpeed="0.00" departDelay="0.00" arrival="158.00" arrivalLane="1o_0" arrivalPos="492.80" arrivalSpeed="10.99" duration="82.00" routeLength="995.90" waitingTime="0.00" waitingCount="0" stopTime="0.00" timeLoss="11.07" rerouteNo="0" devices="tripinfo_NS_76" vType="car" speedFactor="0.99" vaporized=""/>
    <tripinfo id="NS_79" depart="79.00" departLane="2i_0" departPos="4.10" departSpeed="0.00" departDelay="0.00" arrival="159.00" arrivalLane="3o_0" arrivalPos="492.80" arrivalSpeed="10.55" duration="80.00" routeLength="995.70" waitingTime="0.00" waitingCount="0" stopTime="0.00" timeLoss="10.24" rerouteNo="0" devices="tripinfo_NS_79" vType="car" speedFactor="1.02" vaporized=""/>
    <tripinfo id="NS_89" depart="89.00" departLane="2i_0" departPos="4.10" departSpeed="0.00" departDelay="0.00" arrival="165.00" arrivalLane="4o_0" arrivalPos="492.80" arrivalSpeed="11.32" duration="76.00" routeLength="990.53" waitingTime="0.00" waitingCount="0" stopTime="0.00" timeLoss="7.54" rerouteNo="0" devices="tripinfo_NS_89" vType="car" speedFactor="1.03" vaporized=""/>
    <tripinfo id="WE_30" depart="30.00" departLane="1i_0" departPos="4.10" departSpeed="0.00" departDelay="0.00" arrival="168.00" arrivalLane="4o_0" arrivalPos="492.80" arrivalSpeed="11.15" duration="138.00" routeLength="995.70" waitingTime="56.00" waitingCount="1" stopTime="0.00" timeLoss="69.86" rerouteNo="0" devices="tripinfo_WE_30" vType="car" speedFactor="1.05" vaporized=""/>
    <tripinfo id="WE_48" depart="48.00" departLane="1i_0" departPos="4.10" departSpeed="0.00" departDelay="0.00" arrival="173.00" arrivalLane="3o_0" arrivalPos="492.80" arrivalSpeed="10.74" duration="125.00" routeLength="990.53" waitingTime="41.00" waitingCount="1" stopTime="0.00" timeLoss="55.41" rerouteNo="0" devices="tripinfo_WE_48" vType="car" speedFactor="1.02" vaporized=""/>
    <tripinfo id="WE_70" depart="70.00" departLane="1i_0" departPos="4.10" departSpeed="0.00" departDelay="0.00" arrival="173.00" arrivalLane="2o_0" arrivalPos="492.80" arrivalSpeed="12.77" duration="103.00" routeLength="995.90" waitingTime="25.00" waitingCount="1" stopTime="0.00" timeLoss="41.48" rerouteNo="0" devices="tripinfo_WE_70" vType="car" speedFactor="1.15" vaporized=""/>
    <tripinfo id="WE_39" depart="39.00" departLane="1i_0" departPos="4.10" departSpeed="0.00" departDelay="0.00" arrival="175.00" arrivalLane="4o_0" arrivalPos="492.80" arrivalSpeed="10.45" duration="136.00" routeLength="995.70" waitingTime="46.00" waitingCount="1" stopTime="0.00" timeLoss="61.00" rerouteNo="0" devices="tripinfo_WE_39" vType="car" speedFactor="0.94" vaporized=""/>
    <tripinfo id="WE_51" depart="51.00" departLane="1i_0" departPos="4.10" departSpeed="0.00" departDelay="0.00" arrival="178.00" arrivalLane="4o_0" arrivalPos="492.80" arrivalSpeed="10.12" duration="127.00" routeLength="995.70" waitingTime="39.00" waitingCount="1" stopTime="0.00" timeLoss="53.71" rerouteNo="0" devices="tripinfo_WE_51" vType="car" speedFactor="0.97" vaporized=""/>
    <tripinfo id="WE_56" depart="56.00" departLane="1i_0" departPos="4.10" departSpeed="0.00" departDelay="0.00" arrival="185.00" arrivalLane="3o_0" arrivalPos="492.80" arrivalSpeed="9.51" duration="129.00" routeLength="990.53" waitingTime="33.00" waitingCount="1" stopTime="0.00" timeLoss="48.55" rerouteNo="0" devices="tripinfo_WE_56" vType="car" speedFactor="0.87" vaporized=""/>
    <tripinfo id="WE_87" depart="87.00" departLane="1i_0" departPos="4.10" departSpeed="0.00" departDelay="0.00" arrival="187.00" arrivalLane="3o_0" arrivalPos="492.80" arrivalSpeed="11.97" duration="100.00" routeLength="990.53" waitingTime="7.00" waitingCount="1" stopTime="0.00" timeLoss="35.58" rerouteNo="0" devices="tripinfo_WE_87" vType="car" speedFactor="1.10" vaporized=""/>
    <tripinfo id="NS_102" depart="102.00" departLane="2i_0" departPos="4.10" departSpeed="0.00" departDelay="0.00" arrival="191.00" arrivalLane="4o_0" arrivalPos="492.80" arrivalSpeed="9.42" duration="89.00" routeLength="990.53" waitingTime="0.00" waitingCount="0" stopTime="0.00" timeLoss="8.31" rerouteNo="0" devices="tripinfo_NS_102" vType="car" speedFactor="0.88" vaporized=""/>
    <tripinfo id="NS_108" depart="108.00" departLane="2i_0" departPos="4.10" departSpeed="0.00" departDelay="0.00" arrival="193.00" arrivalLane="4o_0" arrivalPos="492.80" arrivalSpeed="10.50" duration="85.00" routeLength="990.53" waitingTime="0.00" waitingCount="0" stopTime="0.00" timeLoss="15.09" rerouteNo="0" devices="tripinfo_NS_108" vType="car" speedFactor="1.02" vaporized=""/>
    <tripinfo id="WE_99" depart="99.00" departLane="1i_0" departPos="10.10" departSpeed="0.00" departDelay="0.00" arrival="195.00" arrivalLane="4o_0" arrivalPos="492.80" arrivalSpeed="11.02" duration="96.00" routeLength="989.70" waitingTime="0.00" waitingCount="0" stopTime="0.00" timeLoss="28.01" rerouteNo="0" devices="tripinfo_WE_99" vType="truck" speedFactor="1.04" vaporized=""/>
    <tripinfo id="WE_100" depart="103.00" departLane="1i_0" departPos="4.10" departSpeed="0.00" departDelay="3.00" arrival="198.00" arrivalLane="2o_0" arrivalPos="492.80" arrivalSpeed="9.05" duration="95.00" routeLength="995.90" waitingTime="0.00" waitingCount="0" stopTime="0.00" timeLoss="16.64" rerouteNo="0" devices="tripinfo_WE_100" vType="car" speedFactor="0.90" vaporized=""/>
    <tripinfo id="WE_112" depart="112.00" departLane="1i_0" departPos="10.10" departSpeed="0.00" departDelay="0.00" arrival="199.00" arrivalLane="4o_0" arrivalPos="492.80" arrivalSpeed="11.02" duration="87.00" routeLength="989.70" waitingTime="0.00" waitingCount="0" stopTime="0.00" timeLoss="16.09" rerouteNo="0" devices="tripinfo_WE_112" vType="truck" speedFactor="1.00" vaporized=""/>
    <tripinfo id="WE_107" depart="107.00" departLane="1i_0" departPos="4.10" departSpeed="0.00" departDelay="0.00" arrival="200.00" arrivalLane="2o_0" arrivalPos="492.80" arrivalSpeed="12.40" duration="93.00" routeLength="995.90" waitingTime="0.00" waitingCount="0" stopTime="0.00" timeLoss="31.97" rerouteNo="0" devices="tripinfo_WE_107" vType="car" speedFactor="1.17" vaporized=""/>
    <tripinfo id="WE_115" depart="117.00" departLane="1i_0" departPos="10.10" departSpeed="0.00" departDelay="2.00" arrival="202.00" arrivalLane="3o_0" arrivalPos="492.80" arrivalSpeed="10.60" duration="85.00" routeLength="984.53" waitingTime="0.00" waitingCount="0" stopTime="0.00" timeLoss="14.21" rerouteNo="0" devices="tripinfo_WE_115" vType="truck" speedFactor="1.00" vaporized=""/>
    <tripinfo id="WE_116" depart="121.00" departLane="1i_0" departPos="4.10" departSpeed="0.00" departDelay="5.00" arrival="213.00" arrivalLane="3o_0" arrivalPos="492.80" arrivalSpeed="9.11" duration="92.00" routeLength="990.53" waitingTime="0.00" waitingCount="0" stopTime="0.00" timeLoss="12.99" rerouteNo="0" devices="tripinfo_WE_116" vType="car" speedFactor="0.90" vaporized=""/>
    <tripinfo id="NS_145" depart="145.00" departLane="2i_0" departPos="4.10" departSpeed="0.00" departDelay="0.00" arrival="221.00" arrivalLane="1o_0" arrivalPos="492.80" arrivalSpeed="11.14" duration="76.00" routeLength="995.90" waitingTime="0.00" waitingCount="0" stopTime="0.00" timeLoss="7.65" rerouteNo="0" devices="tripinfo_NS_145" vType="car" speedFactor="1.04" vaporized=""/>
    <tripinfo id="NS_151" depart="151.00" departLane="2i_0" departPos="4.10" departSpeed="0.00" departDelay="0.00" arrival="231.00" arrivalLane="3o_0" arrivalPos="492.80" arrivalSpeed="10.70" duration="80.00" routeLength="995.70" waitingTime="0.00" waitingCount="0" stopTime="0.00" timeLoss="10.20" rerouteNo="0" devices="tripinfo_NS_151" vType="car" speedFactor="1.02" vaporized=""/>
    <tripinfo id="NS_152" depart="154.00" departLane="2i_0" departPos="4.10" departSpeed="0.00" departDelay="2.00" arrival="234.00" arrivalLane="3o_0" arrivalPos="492.80" arrivalSpeed="10.28" duration="80.00" routeLength="995.70" waitingTime="0.00" waitingCount="0" stopTime="0.00" timeLoss="10.98" rerouteNo="0" devices="tripinfo_NS_152" vType="car" speedFactor="1.02" vaporized=""/>
    <tripinfo id="WE_156" depart="158.00" departLane="1i_0" departPos="4.10" departSpeed="0.00" departDelay="2.00" arrival="242.00" arrivalLane="4o_0" arrivalPos="492.80" arrivalSpeed="10.10" duration="84.00" routeLength="995.70" waitingTime="0.00" waitingCount="0" stopTime="0.00" timeLoss="10.96" rerouteNo="0" devices="tripinfo_WE_156" vType="car" speedFactor="0.97" vaporized=""/>
    <tripinfo id="WE_164" depart="164.00" departLane="1i_0" departPos="4.10" departSpeed="0.00" departDelay="0.00" arrival="247.00" arrivalLane="3o_0" arrivalPos="492.80" arrivalSpeed="9.56" duration="83.00" routeLength="990.53" waitingTime="0.00" waitingCount="0" stopTime="0.00" timeLoss="7.91" rerouteNo="0" devices="tripinfo_WE_164" vType="car" speedFactor="0.94" vaporized=""/>
    <tripinfo id="NS_169" depart="169.00" departLane="2i_0" departPos="4.10" departSpeed="0.00" departDelay="0.00" arrival="249.00" arrivalLane="4o_0" arrivalPos="492.80" arrivalSpeed="10.00" duration="80.00" routeLength="990.53" waitingTime="0.00" waitingCount="0" stopTime="0.00" timeLoss="8.29" rerouteNo="0" devices="tripinfo_NS_169" vType="car" speedFactor="0.98" vaporized=""/>
    <tripinfo id="NS_175" depart="175.00" departLane="2i_0" departPos="4.10" departSpeed="0.00" departDelay="0.00" arrival="253.00" arrivalLane="1o_0" arrivalPos="492.80" arrivalSpeed="10.94" duration="78.00" routeLength="995.90" waitingTime="0.00" waitingCount="0" stopTime="0.00" timeLoss="7.76" rerouteNo="0" devices="tripinfo_NS_175" vType="car" speedFactor="1.01" vaporized=""/>
    <tripinfo id="NS_177" depart="178.00" departLane="2i_0" departPos="4.10" departSpeed="0.00" departDelay="1.00" arrival="255.00" arrivalLane="1o_0" arrivalPos="492.80" arrivalSpeed="11.74" duration="77.00" routeLength="995.90" waitingTime="0.00" waitingCount="0" stopTime="0.00" timeLoss="11.51" rerouteNo="0" devices="tripinfo_NS_177" vType="car" speedFactor="1.09" vaporized=""/>
    <tripinfo id="NS_181" depart="181.00" departLane="2i_0" departPos="4.10" departSpeed="0.00" departDelay="0.00" arrival="267.00" arrivalLane="3o_0" arrivalPos="492.80" arrivalSpeed="10.29" duration="86.00" routeLength="995.70" waitingTime="4.00" waitingCount="1" stopTime="0.00" timeLoss="16.30" rerouteNo="0" devices="tripinfo_NS_181" vType="car" speedFactor="1.02" vaporized=""/>
    <tripinfo id="NS_183" depart="184.00" departLane="2i_0" departPos="4.10" departSpeed="0.00" departDelay="1.00" arrival="269.00" arrivalLane="3o_0" arrivalPos="492.80" arrivalSpeed="12.72" duration="85.00" routeLength="995.70" waitingTime="3.00" waitingCount="1" stopTime="0.00" timeLoss="22.78" rerouteNo="0" devices="tripinfo_NS_183" vType="car" speedFactor="1.15" vaporized=""/>
    <tripinfo id="NS_186" depart="187.00" departLane="2i_0" departPos="4.10" departSpeed="0.00" departDelay="1.00" arrival="272.00" arrivalLane="3o_0" arrivalPos="492.80" arrivalSpeed="10.96" duration="85.00" routeLength="995.70" waitingTime="0.00" waitingCount="0" stopTime="0.00" timeLoss="14.45" rerouteNo="0" devices="tripinfo_NS_186" vType="car" speedFactor="1.00" vaporized=""/>
    <tripinfo id="SN_33" depart="33.00" departLane="3i_0" departPos="4.10" departSpeed="0.00" departDelay="0.00" arrival="273.00" arrivalLane="2o_0" arrivalPos="492.80" arrivalSpeed="12.02" duration="240.00" routeLength="990.53" waitingTime="164.00" waitingCount="1" stopTime="0.00" timeLoss="177.38" rerouteNo="0" devices="tripinfo_SN_33" vType="car" speedFactor="1.12" vaporized=""/>
    <tripinfo id="NS_191" depart="191.00" departLane="2i_0" departPos="4.10" departSpeed="0.00" departDelay="0.00" arrival="273.00" arrivalLane="1o_0" arrivalPos="492.80" arrivalSpeed="11.10" duration="82.00" routeLength="995.90" waitingTime="0.00" waitingCount="0" stopTime="0.00" timeLoss="11.77" rerouteNo="0" devices="tripinfo_NS_191" vType="car" speedFactor="1.01" vaporized=""/>
    <tripinfo id="EW_6" depart="6.00" departLane="4i_0" departPos="4.10" departSpeed="0.00" departDelay="0.00" arrival="275.00" arrivalLane="1o_0" arrivalPos="492.80" arrivalSpeed="10.96" duration="269.00" routeLength="990.53" waitingTime="192.00" waitingCount="1" stopTime="0.00" timeLoss="203.89" rerouteNo="0" devices="tripinfo_EW_6" vType="car" speedFactor="1.08" vaporized=""/>
    <tripinfo id="WE_173" depart="173.00" departLane="1i_0" departPos="4.10" departSpeed="0.00" departDelay="0.00" arrival="280.00" arrivalLane="4o_0" arrivalPos="492.80" arrivalSpeed="10.31" duration="107.00" routeLength="995.70" waitingTime="23.00" waitingCount="1" stopTime="0.00" timeLoss="35.07" rerouteNo="0" devices="tripinfo_WE_173" vType="car" speedFactor="0.98" vaporized=""/>
    <tripinfo id="EW_29" depart="29.00" departLane="4i_0" departPos="4.10" departSpeed="0.00" departDelay="0.00" arrival="283.00" arrivalLane="2o_0" arrivalPos="492.80" arrivalSpeed="11.18" duration="254.00" routeLength="995.70" waitingTime="168.00" waitingCount="1" stopTime="0.00" timeLoss="185.20" rerouteNo="0" devices="tripinfo_EW_29" vType="car" speedFactor="1.03" vaporized=""/>
    <tripinfo id="NS_194" depart="194.00" departLane="2i_0" departPos="4.10" departSpeed="0.00" departDelay="0.00" arrival="283.00" arrivalLane="3o_0" arrivalPos="492.80" arrivalSpeed="9.85" duration="89.00" routeLength="995.70" waitingTime="0.00" waitingCount="0" stopTime="0.00" timeLoss="9.31" rerouteNo="0" devices="tripinfo_NS_194" vType="car" speedFactor="0.89" vaporized=""/>
    <tripinfo id="WE_181" depart="181.00" departLane="1i_0" departPos="4.10" departSpeed="0.00" departDelay="0.00" arrival="285.00" arrivalLane="3o_0" arrivalPos="492.80" arrivalSpeed="9.98" duration="104.00" routeLength="990.53" waitingTime="17.00" waitingCount="2" stopTime="0.00" timeLoss="33.33" rerouteNo="0" devices="tripinfo_WE_181" vType="car" speedFactor="1.00" vaporized=""/>
    <tripinfo id="WE_182" depart="184.00" departLane="1i_0" departPos="4.10" departSpeed="0.00" departDelay="2.00" arrival="288.00" arrivalLane="3o_0" arrivalPos="492.80" arrivalSpeed="10.00" duration="104.00" routeLength="990.53" waitingTime="14.00" waitingCount="2" stopTime="0.00" timeLoss="31.08" rerouteNo="0" devices="tripinfo_WE_182" vType="car" speedFactor="0.97" vaporized=""/>
    <tripinfo id="SN_65" depart="65.00" departLane="3i_0" departPos="4.10" departSpeed="0.00" departDelay="0.00" arrival="291.00" arrivalLane="1o_0" arrivalPos="492.80" arrivalSpeed="9.72" duration="226.00" routeLength="995.70" waitingTime="130.00" waitingCount="1" stopTime="0.00" timeLoss="149.39" rerouteNo="0" devices="tripinfo_SN_65" vType="car" speedFactor="0.93" vaporized=""/>
    <tripinfo id="SN_54" depart="54.00" departLane="3i_0" departPos="4.10" departSpeed="0.00" departDelay="0.00" arrival="292.00" arrivalLane="4o_0" arrivalPos="492.80" arrivalSpeed="8.40" duration="238.00" routeLength="995.90" waitingTime="137.00" waitingCount="1" stopTime="0.00" timeLoss="152.26" rerouteNo="0" devices="tripinfo_SN_54" vType="car" speedFactor="0.83" vaporized=""/>
    <tripinfo id="NS_195" depart="196.00" departLane="2i_0" departPos="4.10" departSpeed="0.00" departDelay="1.00" arrival="293.00" arrivalLane="1o_0" arrivalPos="492.80" arrivalSpeed="9.04" duration="97.00" routeLength="995.90" waitingTime="4.00" waitingCount="3" stopTime="0.00" timeLoss="20.30" rerouteNo="0" devices="tripinfo_NS_195" vType="car" speedFactor="0.92" vaporized=""/>
    <tripinfo id="WE_188" depart="188.00" departLane="1i_0" departPos="4.10" departSpeed="0.00" departDelay="0.00" arrival="294.00" arrivalLane="4o_0" arrivalPos="492.80" arrivalSpeed="11.47" duration="106.00" routeLength="995.70" waitingTime="12.00" waitingCount="2" stopTime="0.00" timeLoss="37.86" rerouteNo="0" devices="tripinfo_WE_188" vType="car" speedFactor="1.04" vaporized=""/>
    <tripinfo id="SN_66" depart="68.00" departLane="3i_0" departPos="4.10" departSpeed="0.00" departDelay="2.00" arrival="295.00" arrivalLane="1o_0" arrivalPos="492.80" arrivalSpeed="12.73" duration="227.00" routeLength="995.70" waitingTime="130.00" waitingCount="2" stopTime="0.00" timeLoss="166.52" rerouteNo="0" devices="tripinfo_SN_66" vType="car" speedFactor="1.18" vaporized=""/>
    <tripinfo id="WE_193" depart="193.00" departLane="1i_0" departPos="4.10" departSpeed="0.00" departDelay="0.00" arrival="298.00" arrivalLane="4o_0" arrivalPos="492.80" arrivalSpeed="10.15" duration="105.00" routeLength="995.70" waitingTime="10.00" waitingCount="3" stopTime="0.00" timeLoss="35.17" rerouteNo="0" devices="tripinfo_WE_193" vType="car" speedFactor="1.02" vaporized=""/>
    <tripinfo id="WE_197" depart="201.00" departLane="1i_0" departPos="4.10" departSpeed="0.00" departDelay="4.00" arrival="301.00" arrivalLane="4o_0" arrivalPos="492.80" arrivalSpeed="11.42" duration="100.00" routeLength="995.70" waitingTime="0.00" waitingCount="0" stopTime="0.00" timeLoss="34.80" rerouteNo="0" devices="tripinfo_WE_197" vType="car" speedFactor="1.09" vaporized=""/>
    <tripinfo id="NS_213" depart="213.00" departLane="2i_0" departPos="4.10" departSpeed="0.00" departDelay="0.00" arrival="302.00" arrivalLane="3o_0" arrivalPos="492.80" arrivalSpeed="9.68" duration="89.00" routeLength="995.70" waitingTime="0.00" waitingCount="0" stopTime="0.00" timeLoss="10.45" rerouteNo="0" devices="tripinfo_NS_213" vType="car" speedFactor="0.91" vaporized=""/>
    <tripinfo id="WE_195" depart="197.00" departLane="1i_0" departPos="10.10" departSpeed="0.00" departDelay="2.00" arrival="306.00" arrivalLane="2o_0" arrivalPos="492.80" arrivalSpeed="10.05" duration="109.00" routeLength="989.90" waitingTime="2.00" waitingCount="2" stopTime="0.00" timeLoss="32.21" rerouteNo="0" devices="tripinfo_WE_195" vType="truck" speedFactor="0.92" vaporized=""/>
    <tripinfo id="WE_228" depart="228.00" departLane="1i_0" departPos="4.10" departSpeed="0.00" departDelay="0.00" arrival="308.00" arrivalLane="2o_0" arrivalPos="492.80" arrivalSpeed="12.18" duration="80.00" routeLength="995.90" waitingTime="0.00" waitingCount="0" stopTime="0.00" timeLoss="15.62" rerouteNo="0" devices="tripinfo_WE_228" vType="car" speedFactor="1.10" vaporized=""/>
    <tripinfo id="WE_230" depart="231.00" departLane="1i_0" departPos="4.10" departSpeed="0.00" departDelay="1.00" arrival="309.00" arrivalLane="4o_0" arrivalPos="492.80" arrivalSpeed="11.74" duration="78.00" routeLength="995.70" waitingTime="0.00" waitingCount="0" stopTime="0.00" timeLoss="11.53" rerouteNo="0" devices="tripinfo_WE_230" vType="car" speedFactor="1.06" vaporized=""/>
    <tripinfo id="NS_236" depart="237.00" departLane="2i_0" departPos="4.10" departSpeed="0.00" departDelay="1.00" arrival="315.00" arrivalLane="1o_0" arrivalPos="492.80" arrivalSpeed="10.70" duration="78.00" routeLength="995.90" waitingTime="0.00" waitingCount="0" stopTime="0.00" timeLoss="11.53" rerouteNo="0" devices="tripinfo_NS_236" vType="car" speedFactor="1.07" vaporized=""/>
    <tripinfo id="NS_234" depart="234.00" departLane="2i_0" departPos="4.10" departSpeed="0.00" departDelay="0.00" arrival="319.00" arrivalLane="3o_0" arrivalPos="492.80" arrivalSpeed="10.47" duration="85.00" routeLength="995.70" waitingTime="0.00" waitingCount="0" stopTime="0.00" timeLoss="10.02" rerouteNo="0" devices="tripinfo_NS_234" vType="car" speedFactor="0.95" vaporized=""/>
    <tripinfo id="WE_232" depart="235.00" departLane="1i_0" departPos="10.10" departSpeed="0.00" departDelay="3.00" arrival="321.00" arrivalLane="3o_0" arrivalPos="492.80" arrivalSpeed="10.89" duration="86.00" routeLength="984.53" waitingTime="0.00" waitingCount="0" stopTime="0.00" timeLoss="14.32" rerouteNo="0" devices="tripinfo_WE_232" vType="truck" speedFactor="0.98" vaporized=""/>
    <tripinfo id="WE_236" depart="239.00" departLane="1i_0" departPos="4.10" departSpeed="0.00" departDelay="3.00" arrival="329.00" arrivalLane="3o_0" arrivalPos="492.80" arrivalSpeed="9.72" duration="90.00" routeLength="990.53" waitingTime="0.00" waitingCount="0" stopTime="0.00" timeLoss="11.40" rerouteNo="0" devices="tripinfo_WE_236" vType="car" speedFactor="0.89" vaporized=""/>
    <tripinfo id="WE_246" depart="246.00" departLane="1i_0" departPos="4.10" departSpeed="0.00" departDelay="0.00" arrival="333.00" arrivalLane="4o_0" arrivalPos="492.80" arrivalSpeed="9.99" duration="87.00" routeLength="995.70" waitingTime="0.00" waitingCount="0" stopTime="0.00" timeLoss="10.67" rerouteNo="0" devices="tripinfo_WE_246" vType="car" speedFactor="0.93" vaporized=""/>
    <tripinfo id="NS_268" depart="268.00" departLane="2i_0" departPos="4.10" departSpeed="0.00" departDelay="0.00" arrival="341.00" arrivalLane="4o_0" arrivalPos="492.80" arrivalSpeed="11.02" duration="73.00" routeLength="990.53" waitingTime="0.00" waitingCount="0" stopTime="0.00" timeLoss="8.14" rerouteNo="0" devices="tripinfo_NS_268" vType="car" speedFactor="1.10" vaporized=""/>
    <tripinfo id="NS_263" depart="263.00" departLane="2i_0" departPos="4.10" departSpeed="0.00" departDelay="0.00" arrival="342.00" arrivalLane="3o_0" arrivalPos="492.80" arrivalSpeed="10.15" duration="79.00" routeLength="995.70" waitingTime="0.00" waitingCount="0" stopTime="0.00" timeLoss="8.62" rerouteNo="0" devices="tripinfo_NS_263" vType="car" speedFactor="1.01" vaporized=""/>
    <tripinfo id="WE_273" depart="273.00" departLane="1i_0" departPos="4.10" departSpeed="0.00" departDelay="0.00" arrival="352.00" arrivalLane="2o_0" arrivalPos="492.80" arrivalSpeed="10.79" duration="79.00" routeLength="995.90" waitingTime="0.00" waitingCount="0" stopTime="0.00" timeLoss="8.56" rerouteNo="0" devices="tripinfo_WE_273" vType="car" speedFactor="1.00" vaporized=""/>
    <tripinfo id="WE_270" depart="270.00" departLane="1i_0" departPos="4.10" departSpeed="0.00" departDelay="0.00" arrival="355.00" arrivalLane="3o_0" arrivalPos="492.80" arrivalSpeed="9.07" duration="85.00" routeLength="990.53" waitingTime="0.00" waitingCount="0" stopTime="0.00" timeLoss="8.58" rerouteNo="0" devices="tripinfo_WE_270" vType="car" speedFactor="0.92" vaporized=""/>
    <tripinfo id="EW_36" depart="36.00" departLane="4i_0" departPos="4.10" departSpeed="0.00" departDelay="0.00" arrival="356.00" arrivalLane="1o_0" arrivalPos="492.80" arrivalSpeed="9.89" duration="320.00" routeLength="990.53" waitingTime="226.00" waitingCount="3" stopTime="0.00" timeLoss="243.75" rerouteNo="0" devices="tripinfo_EW_36" vType="car" speedFactor="0.93" vaporized=""/>
    <tripinfo id="EW_47" depart="47.00" departLane="4i_0" departPos="4.10" departSpeed="0.00" departDelay="0.00" arrival="357.00" arrivalLane="3o_0" arrivalPos="492.80" arrivalSpeed="12.02" duration="310.00" routeLength="995.90" waitingTime="216.00" waitingCount="3" stopTime="0.00" timeLoss="248.79" rerouteNo="0" devices="tripinfo_EW_47" vType="car" speedFactor="1.16" vaporized=""/>
    <tripinfo id="SN_81" depart="81.00" departLane="3i_0" departPos="4.10" departSpeed="0.00" departDelay="0.00" arrival="358.00" arrivalLane="1o_0" arrivalPos="492.80" arrivalSpeed="11.81" duration="277.00" routeLength="995.70" waitingTime="178.00" waitingCount="2" stopTime="0.00" timeLoss="216.45" rerouteNo="0" devices="tripinfo_SN_81" vType="car" speedFactor="1.18" vaporized=""/>