<?xml version="1.0" encoding="UTF-8"?>

<!-- generated on 2024-05-05 21:24:16 by Eclipse SUMO sumo Version 1.19.0
<configuration xmlns:xsi="http://www.w3.org/2001/XMLSchema-instance" xsi:noNamespaceSchemaLocation="http://sumo.dlr.de/xsd/sumoConfiguration.xsd">

    <input>
        <net-file value="twoone.net.xml"/>
        <route-files value="route_gen.rou.xml"/>
    </input>

    <output>
        <tripinfo-output value="tripinfo_epi8.xml"/>
    </output>

    <report>
        <no-warnings value="true"/>
    </report>

    <traci_server>
        <remote-port value="41539"/>
    </traci_server>

</configuration>
-->

<tripinfos xmlns:xsi="http://www.w3.org/2001/XMLSchema-instance" xsi:noNamespaceSchemaLocation="http://sumo.dlr.de/xsd/tripinfo_file.xsd">
    <tripinfo id="NS_4" depart="4.00" departLane="2i_0" departPos="4.10" departSpeed="0.00" departDelay="0.00" arrival="89.00" arrivalLane="3o_0" arrivalPos="492.80" arrivalSpeed="9.75" duration="85.00" routeLength="995.70" waitingTime="0.00" waitingCount="0" stopTime="0.00" timeLoss="9.32" rerouteNo="0" devices="tripinfo_NS_4" vType="car" speedFactor="0.94" vaporized=""/>
    <tripinfo id="NS_16" depart="16.00" departLane="2i_0" departPos="4.10" departSpeed="0.00" departDelay="0.00" arrival="90.00" arrivalLane="4o_0" arrivalPos="492.80" arrivalSpeed="11.90" duration="74.00" routeLength="990.53" waitingTime="0.00" waitingCount="0" stopTime="0.00" timeLoss="8.36" rerouteNo="0" devices="tripinfo_NS_16" vType="car" speedFactor="1.08" vaporized=""/>
    <tripinfo id="SN_7" depart="7.00" departLane="3i_0" departPos="4.10" departSpeed="0.00" departDelay="0.00" arrival="101.00" arrivalLane="4o_0" arrivalPos="492.80" arrivalSpeed="10.59" duration="94.00" routeLength="995.90" waitingTime="11.00" waitingCount="1" stopTime="0.00" timeLoss="23.80" rerouteNo="0" devices="tripinfo_SN_7" vType="car" speedFactor="1.01" vaporized=""/>
    <tripinfo id="EW_2" depart="2.00" departLane="4i_0" departPos="4.10" departSpeed="0.00" departDelay="0.00" arrival="102.00" arrivalLane="2o_0" arrivalPos="492.80" arrivalSpeed="11.14" duration="100.00" routeLength="995.70" waitingTime="17.00" waitingCount="2" stopTime="0.00" timeLoss="33.21" rerouteNo="0" devices="tripinfo_EW_2" vType="car" speedFactor="1.06" vaporized=""/>
    <tripinfo id="NS_21" depart="21.00" departLane="2i_0" departPos="4.10" departSpeed="0.00" departDelay="0.00" arrival="112.00" arrivalLane="1o_0" arrivalPos="492.80" arrivalSpeed="9.32" duration="91.00" routeLength="995.90" waitingTime="0.00" waitingCount="0" stopTime="0.00" timeLoss="10.56" rerouteNo="0" devices="tripinfo_NS_21" vType="car" speedFactor="0.89" vaporized=""/>
    <tripinfo id="EW_24" depart="24.00" departLane="4i_0" departPos="4.10" departSpeed="0.00" departDelay="0.00" arrival="114.00" arrivalLane="1o_0" arrivalPos="492.80" arrivalSpeed="10.12" duration="90.00" routeLength="990.53" waitingTime="0.00" waitingCount="0" stopTime="0.00" timeLoss="14.36" rerouteNo="0" devices="tripinfo_EW_24" vType="car" speedFactor="0.94" vaporized=""/>
    <tripinfo id="SN_19" depart="20.00" departLane="3i_0" departPos="4.10" departSpeed="0.00" departDelay="1.00" arrival="115.00" arrivalLane="4o_0" arrivalPos="492.80" arrivalSpeed="10.38" duration="95.00" routeLength="995.90" waitingTime="5.00" waitingCount="3" stopTime="0.00" timeLoss="27.37" rerouteNo="0" devices="tripinfo_SN_19" vType="car" speedFactor="1.05" vaporized=""/>
    <tripinfo id="WE_19" depart="19.00" departLane="1i_0" departPos="4.10" departSpeed="0.00" departDelay="0.00" arrival="117.00" arrivalLane="2o_0" arrivalPos="492.80" arrivalSpeed="8.52" duration="98.00" routeLength="995.90" waitingTime="0.00" waitingCount="0" stopTime="0.00" timeLoss="12.75" rerouteNo="0" devices="tripinfo_WE_19" vType="car" speedFactor="0.83" vaporized=""/>
    <tripinfo id="SN_17" depart="17.00" departLane="3i_0" departPos="4.10" departSpeed="0.00" departDelay="0.00" arrival="119.00" arrivalLane="2o_0" arrivalPos="492.80" arrivalSpeed="10.70" duration="102.00" routeLength="990.53" waitingTime="6.00" waitingCount="4" stopTime="0.00" timeLoss="33.20" rerouteNo="0" devices="tripinfo_SN_17" vType="car" speedFactor="1.03" vaporized=""/>
    <tripinfo id="WE_33" depart="33.00" departLane="1i_0" departPos="4.10" departSpeed="0.00" departDelay="0.00" arrival="120.00" arrivalLane="2o_0" arrivalPos="492.80" arrivalSpeed="11.16" duration="87.00" routeLength="995.90" waitingTime="0.00" waitingCount="0" stopTime="0.00" timeLoss="18.26" rerouteNo="0" devices="tripinfo_WE_33" vType="car" speedFactor="1.03" vaporized=""/>
    <tripinfo id="NS_25" depart="25.00" departLane="2i_0" departPos="4.10" departSpeed="0.00" departDelay="0.00" arrival="121.00" arrivalLane="1o_0" arrivalPos="492.80" arrivalSpeed="8.83" duration="96.00" routeLength="995.90" waitingTime="0.00" waitingCount="0" stopTime="0.00" timeLoss="12.88" rerouteNo="0" devices="tripinfo_NS_25" vType="car" speedFactor="0.86" vaporized=""/>
    <tripinfo id="WE_38" depart="38.00" departLane="1i_0" departPos="4.10" departSpeed="0.00" departDelay="0.00" arrival="122.00" arrivalLane="2o_0" arrivalPos="492.80" arrivalSpeed="11.53" duration="84.00" routeLength="995.90" waitingTime="1.00" waitingCount="1" stopTime="0.00" timeLoss="20.98" rerouteNo="0" devices="tripinfo_WE_38" vType="car" speedFactor="1.12" vaporized=""/>
    <tripinfo id="NS_29" depart="29.00" departLane="2i_0" departPos="10.10" departSpeed="0.00" departDelay="0.00" arrival="123.00" arrivalLane="3o_0" arrivalPos="492.80" arrivalSpeed="11.51" duration="94.00" routeLength="989.70" waitingTime="5.00" waitingCount="1" stopTime="0.00" timeLoss="26.08" rerouteNo="0" devices="tripinfo_NS_29" vType="truck" speedFactor="1.05" vaporized=""/>
    <tripinfo id="SN_33" depart="33.00" departLane="3i_0" departPos="4.10" departSpeed="0.00" departDelay="0.00" arrival="126.00" arrivalLane="4o_0" arrivalPos="492.80" arrivalSpeed="11.21" duration="93.00" routeLength="995.90" waitingTime="4.00" waitingCount="1" stopTime="0.00" timeLoss="25.17" rerouteNo="0" devices="tripinfo_SN_33" vType="car" speedFactor="1.05" vaporized=""/>
    <tripinfo id="NS_54" depart="54.00" departLane="2i_0" departPos="4.10" departSpeed="0.00" departDelay="0.00" arrival="128.00" arrivalLane="4o_0" arrivalPos="492.80" arrivalSpeed="12.31" duration="74.00" routeLength="990.53" waitingTime="0.00" waitingCount="0" stopTime="0.00" timeLoss="12.60" rerouteNo="0" devices="tripinfo_NS_54" vType="car" speedFactor="1.16" vaporized=""/>
    <tripinfo id="EW_42" depart="42.00" departLane="4i_0" departPos="4.10" departSpeed="0.00" departDelay="0.00" arrival="132.00" arrivalLane="2o_0" arrivalPos="492.80" arrivalSpeed="10.50" duration="90.00" routeLength="995.70" waitingTime="4.00" waitingCount="1" stopTime="0.00" timeLoss="18.21" rerouteNo="0" devices="tripinfo_EW_42" vType="car" speedFactor="0.99" vaporized=""/>
    <tripinfo id="NS_44" depart="44.00" departLane="2i_0" departPos="4.10" departSpeed="0.00" departDelay="0.00" arrival="139.00" arrivalLane="3o_0" arrivalPos="492.80" arrivalSpeed="8.53" duration="95.00" routeLength="995.70" waitingTime="0.00" waitingCount="0" stopTime="0.00" timeLoss="13.83" rerouteNo="0" devices="tripinfo_NS_44" vType="car" speedFactor="0.88" vaporized=""/>
    <tripinfo id="NS_49" depart="49.00" departLane="2i_0" departPos="4.10" departSpeed="0.00" departDelay="0.00" arrival="140.00" arrivalLane="3o_0" arrivalPos="492.80" arrivalSpeed="9.31" duration="91.00" routeLength="995.70" waitingTime="0.00" waitingCount="0" stopTime="0.00" timeLoss="15.94" rerouteNo="0" devices="tripinfo_NS_49" vType="car" speedFactor="0.94" vaporized=""/>
    <tripinfo id="NS_65" depart="65.00" departLane="2i_0" departPos="4.10" departSpeed="0.00" departDelay="0.00" arrival="146.00" arrivalLane="1o_0" arrivalPos="492.80" arrivalSpeed="10.65" duration="81.00" routeLength="995.90" waitingTime="0.00" waitingCount="0" stopTime="0.00" timeLoss="7.40" rerouteNo="0" devices="tripinfo_NS_65" vType="car" speedFactor="0.97" vaporized=""/>
    <tripinfo id="NS_86" depart="86.00" departLane="2i_0" departPos="4.10" departSpeed="0.00" departDelay="0.00" arrival="154.00" arrivalLane="4o_0" arrivalPos="492.80" arrivalSpeed="12.73" duration="68.00" routeLength="990.53" waitingTime="0.00" waitingCount="0" stopTime="0.00" timeLoss="7.39" rerouteNo="0" devices="tripinfo_NS_86" vType="car" speedFactor="1.18" vaporized=""/>
    <tripinfo id="WE_43" depart="43.00" departLane="1i_0" departPos="10.10" departSpeed="0.00" departDelay="0.00" arrival="168.00" arrivalLane="4o_0" arrivalPos="492.80" arrivalSpeed="10.42" duration="125.00" routeLength="989.70" waitingTime="31.00" waitingCount="1" stopTime="0.00" timeLoss="51.51" rerouteNo="0" devices="tripinfo_WE_43" vType="truck" speedFactor="0.96" vaporized=""/>
    <tripinfo id="WE_60" depart="60.00" departLane="1i_0" departPos="4.10" departSpeed="0.00" departDelay="0.00" arrival="169.00" arrivalLane="2o_0" arrivalPos="492.80" arrivalSpeed="10.04" duration="109.00" routeLength="995.90" waitingTime="23.00" waitingCount="1" stopTime="0.00" timeLoss="38.37" rerouteNo="0" devices="tripinfo_WE_60" vType="car" speedFactor="1.01" vaporized=""/>
    <tripinfo id="WE_89" depart="89.00" departLane="1i_0" departPos="4.10" departSpeed="0.00" departDelay="0.00" arrival="171.00" arrivalLane="3o_0" arrivalPos="492.80" arrivalSpeed="12.42" duration="82.00" routeLength="990.53" waitingTime="1.00" waitingCount="1" stopTime="0.00" timeLoss="20.65" rerouteNo="0" devices="tripinfo_WE_89" vType="car" speedFactor="1.15" vaporized=""/>
    <tripinfo id="NS_91" depart="91.00" departLane="2i_0" departPos="10.10" departSpeed="0.00" departDelay="0.00" arrival="174.00" arrivalLane="1o_0" arrivalPos="492.80" arrivalSpeed="10.75" duration="83.00" routeLength="989.90" waitingTime="0.00" waitingCount="0" stopTime="0.00" timeLoss="12.48" rerouteNo="0" devices="tripinfo_NS_91" vType="truck" speedFactor="1.00" vaporized=""/>
    <tripinfo id="WE_70" depart="72.00" departLane="1i_0" departPos="10.10" departSpeed="0.00" departDelay="2.00" arrival="177.00" arrivalLane="2o_0" arrivalPos="492.80" arrivalSpeed="9.89" duration="105.00" routeLength="989.90" waitingTime="6.00" waitingCount="1" stopTime="0.00" timeLoss="27.47" rerouteNo="0" devices="tripinfo_WE_70" vType="truck" speedFactor="0.91" vaporized=""/>
    <tripinfo id="WE_68" depart="68.00" departLane="1i_0" departPos="4.10" departSpeed="0.00" departDelay="0.00" arrival="178.00" arrivalLane="4o_0" arrivalPos="492.80" arrivalSpeed="9.70" duration="110.00" routeLength="995.70" waitingTime="14.00" waitingCount="1" stopTime="0.00" timeLoss="30.05" rerouteNo="0" devices="tripinfo_WE_68" vType="car" speedFactor="0.89" vaporized=""/>
    <tripinfo id="WE_80" depart="80.00" departLane="1i_0" departPos="4.10" departSpeed="0.00" departDelay="0.00" arrival="179.00" arrivalLane="2o_0" arrivalPos="492.80" arrivalSpeed="12.18" duration="99.00" routeLength="995.90" waitingTime="5.00" waitingCount="1" stopTime="0.00" timeLoss="36.18" rerouteNo="0" devices="tripinfo_WE_80" vType="car" speedFactor="1.13" vaporized=""/>
    <tripinfo id="NS_104" depart="104.00" departLane="2i_0" departPos="4.10" departSpeed="0.00" departDelay="0.00" arrival="180.00" arrivalLane="4o_0" arrivalPos="492.80" arrivalSpeed="12.90" duration="76.00" routeLength="990.53" waitingTime="0.00" waitingCount="0" stopTime="0.00" timeLoss="15.36" rerouteNo="0" devices="tripinfo_NS_104" vType="car" speedFactor="1.18" vaporized=""/>
    <tripinfo id="WE_99" depart="99.00" departLane="1i_0" departPos="4.10" departSpeed="0.00" departDelay="0.00" arrival="181.00" arrivalLane="4o_0" arrivalPos="492.80" arrivalSpeed="11.08" duration="82.00" routeLength="995.70" waitingTime="0.00" waitingCount="0" stopTime="0.00" timeLoss="12.55" rerouteNo="0" devices="tripinfo_WE_99" vType="car" speedFactor="1.02" vaporized=""/>
    <tripinfo id="WE_106" depart="106.00" departLane="1i_0" departPos="4.10" departSpeed="0.00" departDelay="0.00" arrival="183.00" arrivalLane="4o_0" arrivalPos="492.80" arrivalSpeed="12.01" duration="77.00" routeLength="995.70" waitingTime="0.00" waitingCount="0" stopTime="0.00" timeLoss="12.63" rerouteNo="0" devices="tripinfo_WE_106" vType="car" speedFactor="1.10" vaporized=""/>
    <tripinfo id="WE_113" depart="114.00" departLane="1i_0" departPos="4.10" departSpeed="0.00" departDelay="1.00" arrival="193.00" arrivalLane="3o_0" arrivalPos="492.80" arrivalSpeed="11.08" duration="79.00" routeLength="990.53" waitingTime="0.00" waitingCount="0" stopTime="0.00" timeLoss="10.09" rerouteNo="0" devices="tripinfo_WE_113" vType="car" speedFactor="1.03" vaporized=""/>
    <tripinfo id="WE_107" depart="109.00" departLane="1i_0" departPos="4.10" departSpeed="0.00" departDelay="2.00" arrival="198.00" arrivalLane="4o_0" arrivalPos="492.80" arrivalSpeed="9.83" duration="89.00" routeLength="995.70" waitingTime="0.00" waitingCount="0" stopTime="0.00" timeLoss="10.53" rerouteNo="0" devices="tripinfo_WE_107" vType="car" speedFactor="0.90" vaporized=""/>
    <tripinfo id="NS_122" depart="123.00" departLane="2i_0" departPos="4.10" departSpeed="0.00" departDelay="1.00" arrival="199.00" arrivalLane="1o_0" arrivalPos="492.80" arrivalSpeed="10.89" duration="76.00" routeLength="995.90" waitingTime="0.00" waitingCount="0" stopTime="0.00" timeLoss="7.81" rerouteNo="0" devices="tripinfo_NS_122" vType="car" speedFactor="1.04" vaporized=""/>
    <tripinfo id="NS_118" depart="120.00" departLane="2i_0" departPos="4.10" departSpeed="0.00" departDelay="2.00" arrival="200.00" arrivalLane="4o_0" arrivalPos="492.80" arrivalSpeed="10.85" duration="80.00" routeLength="990.53" waitingTime="0.00" waitingCount="0" stopTime="0.00" timeLoss="15.19" rerouteNo="0" devices="tripinfo_NS_118" vType="car" speedFactor="1.09" vaporized=""/>
    <tripinfo id="WE_135" depart="135.00" departLane="1i_0" departPos="4.10" departSpeed="0.00" departDelay="0.00" arrival="205.00" arrivalLane="2o_0" arrivalPos="492.80" arrivalSpeed="12.11" duration="70.00" routeLength="995.90" waitingTime="0.00" waitingCount="0" stopTime="0.00" timeLoss="8.92" rerouteNo="0" devices="tripinfo_WE_135" vType="car" speedFactor="1.17" vaporized=""/>
    <tripinfo id="NS_127" depart="127.00" departLane="2i_0" departPos="4.10" departSpeed="0.00" departDelay="0.00" arrival="206.00" arrivalLane="4o_0" arrivalPos="492.80" arrivalSpeed="10.74" duration="79.00" routeLength="990.53" waitingTime="0.00" waitingCount="0" stopTime="0.00" timeLoss="8.17" rerouteNo="0" devices="tripinfo_NS_127" vType="car" speedFactor="1.00" vaporized=""/>
    <tripinfo id="NS_138" depart="141.00" departLane="2i_0" departPos="4.10" departSpeed="0.00" departDelay="3.00" arrival="223.00" arrivalLane="4o_0" arrivalPos="492.80" arrivalSpeed="10.09" duration="82.00" routeLength="990.53" waitingTime="0.00" waitingCount="0" stopTime="0.00" timeLoss="11.00" rerouteNo="0" devices="tripinfo_NS_138" vType="car" speedFactor="1.00" vaporized=""/>
    <tripinfo id="NS_132" depart="132.00" departLane="2i_0" departPos="4.10" departSpeed="0.00" departDelay="0.00" arrival="226.00" arrivalLane="3o_0" arrivalPos="492.80" arrivalSpeed="8.21" duration="94.00" routeLength="995.70" waitingTime="0.00" waitingCount="0" stopTime="0.00" timeLoss="10.48" rerouteNo="0" devices="tripinfo_NS_132" vType="car" speedFactor="0.85" vaporized=""/>
    <tripinfo id="NS_133" depart="135.00" departLane="2i_0" departPos="4.10" departSpeed="0.00" departDelay="2.00" arrival="227.00" arrivalLane="1o_0" arrivalPos="492.80" arrivalSpeed="8.96" duration="92.00" routeLength="995.90" waitingTime="0.00" waitingCount="0" stopTime="0.00" timeLoss="8.57" rerouteNo="0" devices="tripinfo_NS_133" vType="car" speedFactor="0.85" vaporized=""/>
    <tripinfo id="NS_135" depart="137.00" departLane="2i_0" departPos="4.10" departSpeed="0.00" departDelay="2.00" arrival="228.00" arrivalLane="3o_0" arrivalPos="492.80" arrivalSpeed="10.58" duration="91.00" routeLength="995.70" waitingTime="1.00" waitingCount="1" stopTime="0.00" timeLoss="20.84" rerouteNo="0" devices="tripinfo_NS_135" vType="car" speedFactor="1.02" vaporized=""/>
    <tripinfo id="WE_152" depart="152.00" departLane="1i_0" departPos="10.10" departSpeed="0.00" departDelay="0.00" arrival="231.00" arrivalLane="3o_0" arrivalPos="492.80" arrivalSpeed="11.63" duration="79.00" routeLength="984.53" waitingTime="0.00" waitingCount="0" stopTime="0.00" timeLoss="12.52" rerouteNo="0" devices="tripinfo_WE_152" vType="truck" speedFactor="1.07" vaporized=""/>
    <tripinfo id="WE_156" depart="156.00" departLane="1i_0" departPos="4.10" departSpeed="0.00" departDelay="0.00" arrival="237.00" arrivalLane="3o_0" arrivalPos="492.80" arrivalSpeed="10.89" duration="81.00" routeLength="990.53" waitingTime="0.00" waitingCount="0" stopTime="0.00" timeLoss="11.75" rerouteNo="0" devices="tripinfo_WE_156" vType="car" speedFactor="1.02" vaporized=""/>
    <tripinfo id="NS_169" depart="169.00" departLane="2i_0" departPos="10.10" departSpeed="0.00" departDelay="0.00" arrival="252.00" arrivalLane="4o_0" arrivalPos="492.80" arrivalSpeed="10.48" duration="83.00" routeLength="984.53" waitingTime="0.00" waitingCount="0" stopTime="0.00" timeLoss="12.57" rerouteNo="0" devices="tripinfo_NS_169" vType="truck" speedFactor="0.99" vaporized=""/>
    <tripinfo id="NS_151" depart="151.00" departLane="2i_0" departPos="4.10" departSpeed="0.00" departDelay="0.00" arrival="255.00" arrivalLane="3o_0" arrivalPos="492.80" arrivalSpeed="9.29" duration="104.00" routeLength="995.70" waitingTime="12.00" waitingCount="1" stopTime="0.00" timeLoss="25.13" rerouteNo="0" devices="tripinfo_NS_151" vType="car" speedFactor="0.90" vaporized=""/>
    <tripinfo id="WE_162" depart="162.00" departLane="1i_0" departPos="4.10" departSpeed="0.00" departDelay="0.00" arrival="259.00" arrivalLane="4o_0" arrivalPos="492.80" arrivalSpeed="11.29" duration="97.00" routeLength="995.70" waitingTime="18.00" waitingCount="1" stopTime="0.00" timeLoss="33.62" rerouteNo="0" devices="tripinfo_WE_162" vType="car" speedFactor="1.12" vaporized=""/>
    <tripinfo id="NS_172" depart="173.00" departLane="2i_0" departPos="4.10" departSpeed="0.00" departDelay="1.00" arrival="260.00" arrivalLane="1o_0" arrivalPos="492.80" arrivalSpeed="10.22" duration="87.00" routeLength="995.90" waitingTime="0.00" waitingCount="0" stopTime="0.00" timeLoss="11.25" rerouteNo="0" devices="tripinfo_NS_172" vType="car" speedFactor="0.94" vaporized=""/>
    <tripinfo id="WE_166" depart="166.00" departLane="1i_0" departPos="4.10" departSpeed="0.00" departDelay="0.00" arrival="264.00" arrivalLane="3o_0" arrivalPos="492.80" arrivalSpeed="10.09" duration="98.00" routeLength="990.53" waitingTime="13.00" waitingCount="1" stopTime="0.00" timeLoss="28.83" rerouteNo="0" devices="tripinfo_WE_166" vType="car" speedFactor="1.02" vaporized=""/>
    <tripinfo id="NS_175" depart="177.00" departLane="2i_0" departPos="4.10" departSpeed="0.00" departDelay="2.00" arrival="266.00" arrivalLane="1o_0" arrivalPos="492.80" arrivalSpeed="9.51" duration="89.00" routeLength="995.90" waitingTime="0.00" waitingCount="0" stopTime="0.00" timeLoss="8.81" rerouteNo="0" devices="tripinfo_NS_175" vType="car" speedFactor="0.88" vaporized=""/>
    <tripinfo id="WE_206" depart="206.00" departLane="1i_0" departPos="4.10" departSpeed="0.00" departDelay="0.00" arrival="281.00" arrivalLane="2o_0" arrivalPos="492.80" arrivalSpeed="10.71" duration="75.00" routeLength="995.90" waitingTime="0.00" waitingCount="0" stopTime="0.00" timeLoss="7.90" rerouteNo="0" devices="tripinfo_WE_206" vType="car" speedFactor="1.06" vaporized=""/>
    <tripinfo id="NS_207" depart="207.00" departLane="2i_0" departPos="4.10" departSpeed="0.00" departDelay="0.00" arrival="291.00" arrivalLane="3o_0" arrivalPos="492.80" arrivalSpeed="9.92" duration="84.00" routeLength="995.70" waitingTime="0.00" waitingCount="0" stopTime="0.00" timeLoss="9.64" rerouteNo="0" devices="tripinfo_NS_207" vType="car" speedFactor="0.96" vaporized=""/>
    <tripinfo id="NS_216" depart="216.00" departLane="2i_0" departPos="4.10" departSpeed="0.00" departDelay="0.00" arrival="292.00" arrivalLane="4o_0" arrivalPos="492.80" arrivalSpeed="10.73" duration="76.00" routeLength="990.53" waitingTime="0.00" waitingCount="0" stopTime="0.00" timeLoss="7.77" rerouteNo="0" devices="tripinfo_NS_216" vType="car" speedFactor="1.03" vaporized=""/>
    <tripinfo id="NS_224" depart="224.00" departLane="2i_0" departPos="4.10" departSpeed="0.00" departDelay="0.00" arrival="302.00" arrivalLane="3o_0" arrivalPos="492.80" arrivalSpeed="10.65" duration="78.00" routeLength="995.70" waitingTime="0.00" waitingCount="0" stopTime="0.00" timeLoss="9.76" rerouteNo="0" devices="tripinfo_NS_224" vType="car" speedFactor="1.03" vaporized=""/>
    <tripinfo id="NS_226" depart="227.00" departLane="2i_0" departPos="4.10" departSpeed="0.00" departDelay="1.00" arrival="305.00" arrivalLane="1o_0" arrivalPos="492.80" arrivalSpeed="10.81" duration="78.00" routeLength="995.90" waitingTime="0.00" waitingCount="0" stopTime="0.00" timeLoss="8.32" rerouteNo="0" devices="tripinfo_NS_226" vType="car" speedFactor="1.02" vaporized=""/>
    <tripinfo id="NS_233" depart="234.00" departLane="2i_0" departPos="4.10" departSpeed="0.00" departDelay="1.00" arrival="307.00" arrivalLane="4o_0" arrivalPos="492.80" arrivalSpeed="12.34" duration="73.00" routeLength="990.53" waitingTime="0.00" waitingCount="0" stopTime="0.00" timeLoss="11.27" rerouteNo="0" devices="tripinfo_NS_233" vType="car" speedFactor="1.15" vaporized=""/>
    <tripinfo id="NS_231" depart="231.00" departLane="2i_0" departPos="4.10" departSpeed="0.00" departDelay="0.00" arrival="314.00" arrivalLane="3o_0" arrivalPos="492.80" arrivalSpeed="9.57" duration="83.00" routeLength="995.70" waitingTime="0.00" waitingCount="0" stopTime="0.00" timeLoss="9.48" rerouteNo="0" devices="tripinfo_NS_231" vType="car" speedFactor="0.97" vaporized=""/>
    <tripinfo id="NS_238" depart="238.00" departLane="2i_0" departPos="4.10" departSpeed="0.00" departDelay="0.00" arrival="315.00" arrivalLane="1o_0" arrivalPos="492.80" arrivalSpeed="10.57" duration="77.00" routeLength="995.90" waitingTime="0.00" waitingCount="0" stopTime="0.00" timeLoss="8.30" rerouteNo="0" devices="tripinfo_NS_238" vType="car" speedFactor="1.04" vaporized=""/>
    <tripinfo id="NS_245" depart="245.00" departLane="2i_0" departPos="4.10" departSpeed="0.00" departDelay="0.00" arrival="321.00" arrivalLane="4o_0" arrivalPos="492.80" arrivalSpeed="11.25" duration="76.00" routeLength="990.53" waitingTime="0.00" waitingCount="0" stopTime="0.00" timeLoss="7.32" rerouteNo="0" devices="tripinfo_NS_245" vType="car" speedFactor="1.02" vaporized=""/>
    <tripinfo id="NS_256" depart="256.00" departLane="2i_0" departPos="4.10" departSpeed="0.00" departDelay="0.00" arrival="331.00" arrivalLane="3o_0" arrivalPos="492.80" arrivalSpeed="11.79" duration="75.00" routeLength="995.70" waitingTime="0.00" waitingCount="0" stopTime="0.00" timeLoss="9.82" rerouteNo="0" devices="tripinfo_NS_256" vType="car" speedFactor="1.09" vaporized=""/>
    <tripinfo id="NS_263" depart="263.00" departLane="2i_0" departPos="4.10" departSpeed="0.00" departDelay="0.00" arrival="334.00" arrivalLane="4o_0" arrivalPos="492.80" arrivalSpeed="11.29" duration="71.00" routeLength="990.53" waitingTime="0.00" waitingCount="0" stopTime="0.00" timeLoss="7.99" rerouteNo="0" devices="tripinfo_NS_263" vType="car" speedFactor="1.12" vaporized=""/>
    <tripinfo id="WE_221" depart="221.00" departLane="1i_0" departPos="4.10" departSpeed="0.00" departDelay="0.00" arrival="344.00" arrivalLane="4o_0" arrivalPos="492.80" arrivalSpeed="9.73" duration="123.00" routeLength="995.70" waitingTime="36.00" waitingCount="1" stopTime="0.00" timeLoss="50.45" rerouteNo="0" devices="tripinfo_WE_221" vType="car" speedFactor="0.98" vaporized=""/>
    <tripinfo id="WE_259" depart="260.00" departLane="1i_0" departPos="4.10" departSpeed="0.00" departDelay="1.00" arrival="346.00" arrivalLane="4o_0" arrivalPos="492.80" arrivalSpeed="11.06" duration="86.00" routeLength="995.70" waitingTime="2.00" waitingCount="1" stopTime="0.00" timeLoss="18.24" rerouteNo="0" devices="tripinfo_WE_259" vType="car" speedFactor="1.06" vaporized=""/>
    <tripinfo id="WE_262" depart="263.00" departLane="1i_0" departPos="4.10" departSpeed="0.00" departDelay="1.00" arrival="349.00" arrivalLane="4o_0" arrivalPos="492.80" arrivalSpeed="11.06" duration="86.00" routeLength="995.70" waitingTime="0.00" waitingCount="0" stopTime="0.00" timeLoss="15.38" rerouteNo="0" devices="tripinfo_WE_262" vType="car" speedFactor="1.01" vaporized=""/>
    <tripinfo id="WE_250" depart="250.00" departLane="1i_0" departPos="4.10" departSpeed="0.00" departDelay="0.00" arrival="350.00" arrivalLane="2o_0" arrivalPos="492.80" arrivalSpeed="9.83" duration="100.00" routeLength="995.90" waitingTime="8.00" waitingCount="1" stopTime="0.00" timeLoss="20.72" rerouteNo="0" devices="tripinfo_WE_250" vType="car" speedFactor="0.89" vaporized=""/>
    <tripinfo id="WE_264" depart="267.00" departLane="1i_0" departPos="10.10" departSpeed="0.00" departDelay="3.00" arrival="354.00" arrivalLane="4o_0" arrivalPos="492.80" arrivalSpeed="11.40" duration="87.00" routeLength="989.70" waitingTime="0.00" waitingCount="0" stopTime="0.00" timeLoss="18.73" rerouteNo="0" devices="tripinfo_WE_264" vType="truck" speedFactor="1.05" vaporized=""/>
    <tripinfo id="WE_268" depart="271.00" departLane="1i_0" departPos="4.10" departSpeed="0.00" departDelay="3.00" arrival="360.00" arrivalLane="3o_0" arrivalPos="492.80" arrivalSpeed="9.55" duration="89.00" routeLength="990.53" waitingTime="0.00" waitingCount="0" stopTime="0.00" timeLoss="15.55" rerouteNo="0" devices="tripinfo_WE_268" vType="car" speedFactor="0.96" vaporized=""/>
    <tripinfo id="WE_274" depart="274.00" departLane="1i_0" departPos="4.10" departSpeed="0.00" departDelay="0.00" arrival="362.00" arrivalLane="2o_0" arrivalPos="492.80" arrivalSpeed="10.15" duration="88.00" routeLength="995.90" waitingTime="0.00" waitingCount="0" stopTime="0.00" timeLoss="14.68" rerouteNo="0" devices="tripinfo_WE_274" vType="car" speedFactor="0.97" vaporized=""/>
    <tripinfo id="WE_284" depart="284.00" departLane="1i_0" departPos="4.10" departSpeed="0.00" departDelay="0.00" arrival="362.00" arrivalLane="3o_0" arrivalPos="492.80" arrivalSpeed="10.55" duration="78.00" routeLength="990.53" waitingTime="0.00" waitingCount="0" stopTime="0.00" timeLoss="11.55" rerouteNo="0" devices="tripinfo_WE_284" vType="car" speedFactor="1.06" vaporized=""/>
    <tripinfo id="NS_281" depart="281.00" departLane="2i_0" departPos="10.10" departSpeed="0.00" departDelay="0.00" arrival="367.00" arrivalLane="4o_0" arrivalPos="492.80" arrivalSpeed="9.99" duration="86.00" routeLength="984.53" waitingTime="0.00" waitingCount="0" stopTime="0.00" timeLoss="11.67" rerouteNo="0" devices="tripinfo_NS_281" vType="truck" speedFactor="0.95" vaporized=""/>
    <tripinfo id="NS_283" depart="286.00" departLane="2i_0" departPos="10.10" departSpeed="0.00" departDelay="3.00" arrival="372.00" arrivalLane="3o_0" arrivalPos="492.80" arrivalSpeed="10.94" duration="86.00" routeLength="989.70" waitingTime="0.00" waitingCount="0" stopTime="0.00" timeLoss="16.84" rerouteNo="0" devices="tripinfo_NS_283" vType="truck" speedFactor="1.02" vaporized=""/>
    <tripinfo id="NS_284" depart="290.00" departLane="2i_0" departPos="4.10" departSpeed="0.00" departDelay="6.00" arrival="378.00" arrivalLane="4o_0" arrivalPos="492.80" arrivalSpeed="10.48" duration="88.00" routeLength="990.53" waitingTime="0.00" waitingCount="0" stopTime="0.00" timeLoss="14.50" rerouteNo="0" devices="tripinfo_NS_284" vType="car" speedFactor="0.96" vaporized=""/>
    <tripinfo id="WE_299" depart="299.00" departLane="1i_0" departPos="4.10" departSpeed="0.00" departDelay="0.00" arrival="384.00" arrivalLane="3o_0" arrivalPos="492.80" arrivalSpeed="9.71" duration="85.00" routeLength="990.53" waitingTime="0.00" waitingCount="0" stopTime="0.00" timeLoss="8.74" rerouteNo="0" devices="tripinfo_WE_299" vType="car" speedFactor="0.92" vaporized=""/>
    <tripinfo id="NS_303" depart="304.00" departLane="2i_0" departPos="4.10" departSpeed="0.00" departDelay="1.00" arrival="385.00" arrivalLane="1o_0" arrivalPos="492.80" arrivalSpeed="9.94" duration="81.00" routeLength="995.90" waitingTime="0.00" waitingCount="0" stopTime="0.00" timeLoss="9.30" rerouteNo="0" devices="tripinfo_NS_303" vType="car" speedFactor="0.99" vaporized=""/>
    <tripinfo id="NS_292" depart="293.00" departLane="2i_0" departPos="4.10" departSpeed="0.00" departDelay="1.00" arrival="386.00" arrivalLane="4o_0" arrivalPos="492.80" arrivalSpeed="8.71" duration="93.00" routeLength="990.53" waitingTime="0.00" waitingCount="0" stopTime="0.00" timeLoss="11.24" rerouteNo="0" devices="tripinfo_NS_292" vType="car" speedFactor="0.87" vaporized=""/>
    <tripinfo id="NS_301" depart="301.00" departLane="2i_0" departPos="4.10" departSpeed="0.00" departDelay="0.00" arrival="386.00" arrivalLane="3o_0" arrivalPos="492.80" arrivalSpeed="11.96" duration="85.00" routeLength="995.70" waitingTime="0.00" waitingCount="0" stopTime="0.00" timeLoss="24.57" rerouteNo="0" devices="tripinfo_NS_301" vType="car" speedFactor="1.18" vaporized=""/>
    <tripinfo id="NS_294" depart="296.00" departLane="2i_0" departPos="4.10" departSpeed="0.00" departDelay="2.00" arrival="387.00" arrivalLane="4o_0" arrivalPos="492.80" arrivalSpeed="10.08" duration="91.00" routeLength="990.53" waitingTime="0.00" waitingCount="0" stopTime="0.00" timeLoss="21.46" rerouteNo="0" devices="tripinfo_NS_294" vType="car" speedFactor="1.01" vaporized=""/>
    <tripinfo id="WE_318" depart="318.00" departLane="1i_0" departPos="4.10" departSpeed="0.00" departDelay="0.00" arrival="390.00" arrivalLane="3o_0" arrivalPos="492.80" arrivalSpeed="11.99" duration="72.00" routeLength="990.53" waitingTime="0.00" waitingCount="0" stopTime="0.00" timeLoss="7.97" rerouteNo="0" devices="tripinfo_WE_318" vType="car" speedFactor="1.10" vaporized=""/>