<?xml version="1.0" encoding="UTF-8"?>

<!-- generated on 2024-05-05 22:28:18 by Eclipse SUMO sumo Version 1.19.0
<configuration xmlns:xsi="http://www.w3.org/2001/XMLSchema-instance" xsi:noNamespaceSchemaLocation="http://sumo.dlr.de/xsd/sumoConfiguration.xsd">

    <input>
        <net-file value="twoone.net.xml"/>
        <route-files value="route_gen.rou.xml"/>
    </input>

    <output>
        <tripinfo-output value="tripinfo_epi292.xml"/>
    </output>

    <report>
        <no-warnings value="true"/>
    </report>

    <traci_server>
        <remote-port value="46375"/>
    </traci_server>

</configuration>
-->

<tripinfos xmlns:xsi="http://www.w3.org/2001/XMLSchema-instance" xsi:noNamespaceSchemaLocation="http://sumo.dlr.de/xsd/tripinfo_file.xsd">
    <tripinfo id="SN_0" depart="0.00" departLane="3i_0" departPos="4.10" departSpeed="0.00" departDelay="0.00" arrival="79.00" arrivalLane="2o_0" arrivalPos="492.80" arrivalSpeed="10.89" duration="79.00" routeLength="990.53" waitingTime="1.00" waitingCount="1" stopTime="0.00" timeLoss="12.58" rerouteNo="0" devices="tripinfo_SN_0" vType="car" speedFactor="1.06" vaporized=""/>
    <tripinfo id="WE_27" depart="27.00" departLane="1i_0" departPos="4.10" departSpeed="0.00" departDelay="0.00" arrival="104.00" arrivalLane="3o_0" arrivalPos="492.80" arrivalSpeed="11.12" duration="77.00" routeLength="990.53" waitingTime="0.00" waitingCount="0" stopTime="0.00" timeLoss="6.99" rerouteNo="0" devices="tripinfo_WE_27" vType="car" speedFactor="1.01" vaporized=""/>
    <tripinfo id="SN_15" depart="15.00" departLane="3i_0" departPos="4.10" departSpeed="0.00" departDelay="0.00" arrival="105.00" arrivalLane="2o_0" arrivalPos="492.80" arrivalSpeed="10.19" duration="90.00" routeLength="990.53" waitingTime="1.00" waitingCount="1" stopTime="0.00" timeLoss="14.54" rerouteNo="0" devices="tripinfo_SN_15" vType="car" speedFactor="0.94" vaporized=""/>
    <tripinfo id="WE_29" depart="30.00" departLane="1i_0" departPos="4.10" departSpeed="0.00" departDelay="1.00" arrival="105.00" arrivalLane="4o_0" arrivalPos="492.80" arrivalSpeed="11.14" duration="75.00" routeLength="995.70" waitingTime="0.00" waitingCount="0" stopTime="0.00" timeLoss="9.83" rerouteNo="0" devices="tripinfo_WE_29" vType="car" speedFactor="1.08" vaporized=""/>
    <tripinfo id="WE_40" depart="40.00" departLane="1i_0" departPos="10.10" departSpeed="0.00" departDelay="0.00" arrival="122.00" arrivalLane="2o_0" arrivalPos="492.80" arrivalSpeed="11.09" duration="82.00" routeLength="989.90" waitingTime="0.00" waitingCount="0" stopTime="0.00" timeLoss="12.31" rerouteNo="0" devices="tripinfo_WE_40" vType="truck" speedFactor="1.02" vaporized=""/>
    <tripinfo id="WE_49" depart="49.00" departLane="1i_0" departPos="10.10" departSpeed="0.00" departDelay="0.00" arrival="135.00" arrivalLane="3o_0" arrivalPos="492.80" arrivalSpeed="10.01" duration="86.00" routeLength="984.53" waitingTime="0.00" waitingCount="0" stopTime="0.00" timeLoss="11.68" rerouteNo="0" devices="tripinfo_WE_49" vType="truck" speedFactor="0.94" vaporized=""/>
    <tripinfo id="SN_43" depart="43.00" departLane="3i_0" departPos="4.10" departSpeed="0.00" departDelay="0.00" arrival="139.00" arrivalLane="1o_0" arrivalPos="492.80" arrivalSpeed="11.30" duration="96.00" routeLength="995.70" waitingTime="2.00" waitingCount="1" stopTime="0.00" timeLoss="28.12" rerouteNo="0" devices="tripinfo_SN_43" vType="car" speedFactor="1.05" vaporized=""/>
    <tripinfo id="SN_40" depart="40.00" departLane="3i_0" departPos="4.10" departSpeed="0.00" departDelay="0.00" arrival="141.00" arrivalLane="4o_0" arrivalPos="492.80" arrivalSpeed="9.00" duration="101.00" routeLength="995.90" waitingTime="1.00" waitingCount="1" stopTime="0.00" timeLoss="16.13" rerouteNo="0" devices="tripinfo_SN_40" vType="car" speedFactor="0.83" vaporized=""/>
    <tripinfo id="NS_50" depart="50.00" departLane="2i_0" departPos="4.10" departSpeed="0.00" departDelay="0.00" arrival="141.00" arrivalLane="3o_0" arrivalPos="492.80" arrivalSpeed="9.70" duration="91.00" routeLength="995.70" waitingTime="2.00" waitingCount="1" stopTime="0.00" timeLoss="15.13" rerouteNo="0" devices="tripinfo_NS_50" vType="car" speedFactor="0.94" vaporized=""/>
    <tripinfo id="NS_55" depart="55.00" departLane="2i_0" departPos="10.10" departSpeed="0.00" departDelay="0.00" arrival="144.00" arrivalLane="4o_0" arrivalPos="492.80" arrivalSpeed="11.52" duration="89.00" routeLength="984.53" waitingTime="0.00" waitingCount="0" stopTime="0.00" timeLoss="20.79" rerouteNo="0" devices="tripinfo_NS_55" vType="truck" speedFactor="1.05" vaporized=""/>
    <tripinfo id="NS_69" depart="69.00" departLane="2i_0" departPos="4.10" departSpeed="0.00" departDelay="0.00" arrival="153.00" arrivalLane="1o_0" arrivalPos="492.80" arrivalSpeed="9.35" duration="84.00" routeLength="995.90" waitingTime="0.00" waitingCount="0" stopTime="0.00" timeLoss="8.24" rerouteNo="0" devices="tripinfo_NS_69" vType="car" speedFactor="0.94" vaporized=""/>
    <tripinfo id="WE_57" depart="57.00" departLane="1i_0" departPos="4.10" departSpeed="0.00" departDelay="0.00" arrival="156.00" arrivalLane="4o_0" arrivalPos="492.80" arrivalSpeed="11.02" duration="99.00" routeLength="995.70" waitingTime="14.00" waitingCount="1" stopTime="0.00" timeLoss="29.34" rerouteNo="0" devices="tripinfo_WE_57" vType="car" speedFactor="1.03" vaporized=""/>
    <tripinfo id="WE_59" depart="60.00" departLane="1i_0" departPos="4.10" departSpeed="0.00" departDelay="1.00" arrival="156.00" arrivalLane="3o_0" arrivalPos="492.80" arrivalSpeed="11.23" duration="96.00" routeLength="990.53" waitingTime="14.00" waitingCount="2" stopTime="0.00" timeLoss="32.85" rerouteNo="0" devices="tripinfo_WE_59" vType="car" speedFactor="1.12" vaporized=""/>
    <tripinfo id="SN_57" depart="57.00" departLane="3i_0" departPos="4.10" departSpeed="0.00" departDelay="0.00" arrival="157.00" arrivalLane="4o_0" arrivalPos="492.80" arrivalSpeed="11.10" duration="100.00" routeLength="995.90" waitingTime="13.00" waitingCount="3" stopTime="0.00" timeLoss="32.64" rerouteNo="0" devices="tripinfo_SN_57" vType="car" speedFactor="1.05" vaporized=""/>
    <tripinfo id="EW_59" depart="59.00" departLane="4i_0" departPos="4.10" departSpeed="0.00" departDelay="0.00" arrival="157.00" arrivalLane="1o_0" arrivalPos="492.80" arrivalSpeed="10.98" duration="98.00" routeLength="990.53" waitingTime="10.00" waitingCount="1" stopTime="0.00" timeLoss="26.97" rerouteNo="0" devices="tripinfo_EW_59" vType="car" speedFactor="0.99" vaporized=""/>
    <tripinfo id="EW_70" depart="70.00" departLane="4i_0" departPos="4.10" departSpeed="0.00" departDelay="0.00" arrival="159.00" arrivalLane="1o_0" arrivalPos="492.80" arrivalSpeed="12.39" duration="89.00" routeLength="990.53" waitingTime="2.00" waitingCount="1" stopTime="0.00" timeLoss="27.67" rerouteNo="0" devices="tripinfo_EW_70" vType="car" speedFactor="1.16" vaporized=""/>
    <tripinfo id="EW_55" depart="55.00" departLane="4i_0" departPos="4.10" departSpeed="0.00" departDelay="0.00" arrival="161.00" arrivalLane="2o_0" arrivalPos="492.80" arrivalSpeed="8.27" duration="106.00" routeLength="995.70" waitingTime="10.00" waitingCount="1" stopTime="0.00" timeLoss="23.05" rerouteNo="0" devices="tripinfo_EW_55" vType="car" speedFactor="0.86" vaporized=""/>
    <tripinfo id="NS_86" depart="86.00" departLane="2i_0" departPos="4.10" departSpeed="0.00" departDelay="0.00" arrival="169.00" arrivalLane="3o_0" arrivalPos="492.80" arrivalSpeed="9.83" duration="83.00" routeLength="995.70" waitingTime="0.00" waitingCount="0" stopTime="0.00" timeLoss="10.39" rerouteNo="0" devices="tripinfo_NS_86" vType="car" speedFactor="0.97" vaporized=""/>
    <tripinfo id="SN_64" depart="64.00" departLane="3i_0" departPos="4.10" departSpeed="0.00" departDelay="0.00" arrival="171.00" arrivalLane="4o_0" arrivalPos="492.80" arrivalSpeed="9.20" duration="107.00" routeLength="995.90" waitingTime="7.00" waitingCount="4" stopTime="0.00" timeLoss="26.57" rerouteNo="0" devices="tripinfo_SN_64" vType="car" speedFactor="0.88" vaporized=""/>
    <tripinfo id="SN_67" depart="67.00" departLane="3i_0" departPos="4.10" departSpeed="0.00" departDelay="0.00" arrival="173.00" arrivalLane="1o_0" arrivalPos="492.80" arrivalSpeed="9.47" duration="106.00" routeLength="995.70" waitingTime="7.00" waitingCount="4" stopTime="0.00" timeLoss="31.03" rerouteNo="0" devices="tripinfo_SN_67" vType="car" speedFactor="0.94" vaporized=""/>
    <tripinfo id="NS_99" depart="100.00" departLane="2i_0" departPos="4.10" departSpeed="0.00" departDelay="1.00" arrival="176.00" arrivalLane="1o_0" arrivalPos="492.80" arrivalSpeed="12.80" duration="76.00" routeLength="995.90" waitingTime="0.00" waitingCount="0" stopTime="0.00" timeLoss="15.58" rerouteNo="0" devices="tripinfo_NS_99" vType="car" speedFactor="1.18" vaporized=""/>
    <tripinfo id="NS_94" depart="94.00" departLane="2i_0" departPos="4.10" departSpeed="0.00" departDelay="0.00" arrival="179.00" arrivalLane="3o_0" arrivalPos="492.80" arrivalSpeed="9.81" duration="85.00" routeLength="995.70" waitingTime="0.00" waitingCount="0" stopTime="0.00" timeLoss="9.88" rerouteNo="0" devices="tripinfo_NS_94" vType="car" speedFactor="0.95" vaporized=""/>
    <tripinfo id="NS_89" depart="89.00" departLane="2i_0" departPos="4.10" departSpeed="0.00" departDelay="0.00" arrival="183.00" arrivalLane="4o_0" arrivalPos="492.80" arrivalSpeed="8.44" duration="94.00" routeLength="990.53" waitingTime="0.00" waitingCount="0" stopTime="0.00" timeLoss="8.92" rerouteNo="0" devices="tripinfo_NS_89" vType="car" speedFactor="0.83" vaporized=""/>
    <tripinfo id="NS_95" depart="97.00" departLane="2i_0" departPos="4.10" departSpeed="0.00" departDelay="2.00" arrival="185.00" arrivalLane="4o_0" arrivalPos="492.80" arrivalSpeed="12.09" duration="88.00" routeLength="990.53" waitingTime="0.00" waitingCount="0" stopTime="0.00" timeLoss="25.26" rerouteNo="0" devices="tripinfo_NS_95" vType="car" speedFactor="1.13" vaporized=""/>
    <tripinfo id="WE_64" depart="64.00" departLane="1i_0" departPos="4.10" departSpeed="0.00" departDelay="0.00" arrival="187.00" arrivalLane="4o_0" arrivalPos="492.80" arrivalSpeed="9.02" duration="123.00" routeLength="995.70" waitingTime="21.00" waitingCount="2" stopTime="0.00" timeLoss="46.27" rerouteNo="0" devices="tripinfo_WE_64" vType="car" speedFactor="0.93" vaporized=""/>
    <tripinfo id="WE_79" depart="79.00" departLane="1i_0" departPos="4.10" departSpeed="0.00" departDelay="0.00" arrival="188.00" arrivalLane="4o_0" arrivalPos="492.80" arrivalSpeed="11.27" duration="109.00" routeLength="995.70" waitingTime="13.00" waitingCount="2" stopTime="0.00" timeLoss="39.68" rerouteNo="0" devices="tripinfo_WE_79" vType="car" speedFactor="1.02" vaporized=""/>
    <tripinfo id="WE_83" depart="83.00" departLane="1i_0" departPos="10.10" departSpeed="0.00" departDelay="0.00" arrival="191.00" arrivalLane="3o_0" arrivalPos="492.80" arrivalSpeed="10.93" duration="108.00" routeLength="984.53" waitingTime="9.00" waitingCount="1" stopTime="0.00" timeLoss="38.09" rerouteNo="0" devices="tripinfo_WE_83" vType="truck" speedFactor="1.01" vaporized=""/>
    <tripinfo id="SN_88" depart="88.00" departLane="3i_0" departPos="4.10" departSpeed="0.00" departDelay="0.00" arrival="195.00" arrivalLane="4o_0" arrivalPos="492.80" arrivalSpeed="9.19" duration="107.00" routeLength="995.90" waitingTime="10.00" waitingCount="3" stopTime="0.00" timeLoss="27.24" rerouteNo="0" devices="tripinfo_SN_88" vType="car" speedFactor="0.89" vaporized=""/>
    <tripinfo id="NS_120" depart="122.00" departLane="2i_0" departPos="4.10" departSpeed="0.00" departDelay="2.00" arrival="197.00" arrivalLane="3o_0" arrivalPos="492.80" arrivalSpeed="11.05" duration="75.00" routeLength="995.70" waitingTime="0.00" waitingCount="0" stopTime="0.00" timeLoss="10.50" rerouteNo="0" devices="tripinfo_NS_120" vType="car" speedFactor="1.10" vaporized=""/>
    <tripinfo id="SN_92" depart="92.00" departLane="3i_0" departPos="4.10" departSpeed="0.00" departDelay="0.00" arrival="198.00" arrivalLane="1o_0" arrivalPos="492.80" arrivalSpeed="9.57" duration="106.00" routeLength="995.70" waitingTime="10.00" waitingCount="4" stopTime="0.00" timeLoss="28.30" rerouteNo="0" devices="tripinfo_SN_92" vType="car" speedFactor="0.92" vaporized=""/>
    <tripinfo id="EW_92" depart="92.00" departLane="4i_0" departPos="4.10" departSpeed="0.00" departDelay="0.00" arrival="200.00" arrivalLane="2o_0" arrivalPos="492.80" arrivalSpeed="9.58" duration="108.00" routeLength="995.70" waitingTime="13.00" waitingCount="2" stopTime="0.00" timeLoss="27.04" rerouteNo="0" devices="tripinfo_EW_92" vType="car" speedFactor="0.87" vaporized=""/>
    <tripinfo id="WE_96" depart="96.00" departLane="1i_0" departPos="4.10" departSpeed="0.00" departDelay="0.00" arrival="202.00" arrivalLane="2o_0" arrivalPos="492.80" arrivalSpeed="9.90" duration="106.00" routeLength="995.90" waitingTime="3.00" waitingCount="1" stopTime="0.00" timeLoss="29.97" rerouteNo="0" devices="tripinfo_WE_96" vType="car" speedFactor="0.93" vaporized=""/>
    <tripinfo id="WE_105" depart="105.00" departLane="1i_0" departPos="4.10" departSpeed="0.00" departDelay="0.00" arrival="204.00" arrivalLane="4o_0" arrivalPos="492.80" arrivalSpeed="10.89" duration="99.00" routeLength="995.70" waitingTime="2.00" waitingCount="1" stopTime="0.00" timeLoss="28.20" rerouteNo="0" devices="tripinfo_WE_105" vType="car" speedFactor="1.01" vaporized=""/>
    <tripinfo id="SN_101" depart="101.00" departLane="3i_0" departPos="10.10" departSpeed="0.00" departDelay="0.00" arrival="205.00" arrivalLane="2o_0" arrivalPos="492.80" arrivalSpeed="11.61" duration="104.00" routeLength="984.53" waitingTime="4.00" waitingCount="1" stopTime="0.00" timeLoss="37.14" rerouteNo="0" devices="tripinfo_SN_101" vType="truck" speedFactor="1.08" vaporized=""/>
    <tripinfo id="EW_114" depart="114.00" departLane="4i_0" departPos="4.10" departSpeed="0.00" departDelay="0.00" arrival="207.00" arrivalLane="2o_0" arrivalPos="492.80" arrivalSpeed="11.26" duration="93.00" routeLength="995.70" waitingTime="6.00" waitingCount="1" stopTime="0.00" timeLoss="23.31" rerouteNo="0" devices="tripinfo_EW_114" vType="car" speedFactor="1.02" vaporized=""/>
    <tripinfo id="NS_129" depart="129.00" departLane="2i_0" departPos="4.10" departSpeed="0.00" departDelay="0.00" arrival="207.00" arrivalLane="1o_0" arrivalPos="492.80" arrivalSpeed="11.91" duration="78.00" routeLength="995.90" waitingTime="0.00" waitingCount="0" stopTime="0.00" timeLoss="12.66" rerouteNo="0" devices="tripinfo_NS_129" vType="car" speedFactor="1.09" vaporized=""/>
    <tripinfo id="WE_111" depart="111.00" departLane="1i_0" departPos="4.10" departSpeed="0.00" departDelay="0.00" arrival="210.00" arrivalLane="2o_0" arrivalPos="492.80" arrivalSpeed="10.63" duration="99.00" routeLength="995.90" waitingTime="4.00" waitingCount="2" stopTime="0.00" timeLoss="28.10" rerouteNo="0" devices="tripinfo_WE_111" vType="car" speedFactor="0.99" vaporized=""/>
    <tripinfo id="EW_126" depart="126.00" departLane="4i_0" departPos="4.10" departSpeed="0.00" departDelay="0.00" arrival="212.00" arrivalLane="2o_0" arrivalPos="492.80" arrivalSpeed="10.50" duration="86.00" routeLength="995.70" waitingTime="1.00" waitingCount="1" stopTime="0.00" timeLoss="17.34" rerouteNo="0" devices="tripinfo_EW_126" vType="car" speedFactor="1.03" vaporized=""/>
    <tripinfo id="SN_107" depart="107.00" departLane="3i_0" departPos="4.10" departSpeed="0.00" departDelay="0.00" arrival="214.00" arrivalLane="2o_0" arrivalPos="492.80" arrivalSpeed="12.69" duration="107.00" routeLength="990.53" waitingTime="8.00" waitingCount="3" stopTime="0.00" timeLoss="46.58" rerouteNo="0" devices="tripinfo_SN_107" vType="car" speedFactor="1.17" vaporized=""/>
    <tripinfo id="SN_119" depart="119.00" departLane="3i_0" departPos="4.10" departSpeed="0.00" departDelay="0.00" arrival="216.00" arrivalLane="2o_0" arrivalPos="492.80" arrivalSpeed="12.66" duration="97.00" routeLength="990.53" waitingTime="6.00" waitingCount="3" stopTime="0.00" timeLoss="36.65" rerouteNo="0" devices="tripinfo_SN_119" vType="car" speedFactor="1.18" vaporized=""/>
    <tripinfo id="WE_119" depart="119.00" departLane="1i_0" departPos="4.10" departSpeed="0.00" departDelay="0.00" arrival="218.00" arrivalLane="4o_0" arrivalPos="492.80" arrivalSpeed="10.10" duration="99.00" routeLength="995.70" waitingTime="2.00" waitingCount="1" stopTime="0.00" timeLoss="26.30" rerouteNo="0" devices="tripinfo_WE_119" vType="car" speedFactor="0.97" vaporized=""/>
    <tripinfo id="WE_122" depart="122.00" departLane="1i_0" departPos="4.10" departSpeed="0.00" departDelay="0.00" arrival="223.00" arrivalLane="3o_0" arrivalPos="492.80" arrivalSpeed="9.73" duration="101.00" routeLength="990.53" waitingTime="1.00" waitingCount="1" stopTime="0.00" timeLoss="22.69" rerouteNo="0" devices="tripinfo_WE_122" vType="car" speedFactor="0.90" vaporized=""/>
    <tripinfo id="WE_128" depart="128.00" departLane="1i_0" departPos="10.10" departSpeed="0.00" departDelay="0.00" arrival="225.00" arrivalLane="4o_0" arrivalPos="492.80" arrivalSpeed="10.32" duration="97.00" routeLength="989.70" waitingTime="0.00" waitingCount="0" stopTime="0.00" timeLoss="24.64" rerouteNo="0" devices="tripinfo_WE_128" vType="truck" speedFactor="0.98" vaporized=""/>
    <tripinfo id="NS_137" depart="137.00" departLane="2i_0" departPos="4.10" departSpeed="0.00" departDelay="0.00" arrival="225.00" arrivalLane="3o_0" arrivalPos="492.80" arrivalSpeed="11.74" duration="88.00" routeLength="995.70" waitingTime="2.00" waitingCount="1" stopTime="0.00" timeLoss="22.34" rerouteNo="0" devices="tripinfo_NS_137" vType="car" speedFactor="1.09" vaporized=""/>
    <tripinfo id="EW_134" depart="134.00" departLane="4i_0" departPos="10.10" departSpeed="0.00" departDelay="0.00" arrival="226.00" arrivalLane="2o_0" arrivalPos="492.80" arrivalSpeed="10.82" duration="92.00" routeLength="989.70" waitingTime="0.00" waitingCount="0" stopTime="0.00" timeLoss="22.46" rerouteNo="0" devices="tripinfo_EW_134" vType="truck" speedFactor="1.02" vaporized=""/>
    <tripinfo id="WE_144" depart="144.00" departLane="1i_0" departPos="4.10" departSpeed="0.00" departDelay="0.00" arrival="236.00" arrivalLane="4o_0" arrivalPos="492.80" arrivalSpeed="9.97" duration="92.00" routeLength="995.70" waitingTime="0.00" waitingCount="0" stopTime="0.00" timeLoss="13.34" rerouteNo="0" devices="tripinfo_WE_144" vType="car" speedFactor="0.90" vaporized=""/>
    <tripinfo id="WE_159" depart="159.00" departLane="1i_0" departPos="4.10" departSpeed="0.00" departDelay="0.00" arrival="239.00" arrivalLane="4o_0" arrivalPos="492.80" arrivalSpeed="10.75" duration="80.00" routeLength="995.70" waitingTime="0.00" waitingCount="0" stopTime="0.00" timeLoss="10.54" rerouteNo="0" devices="tripinfo_WE_159" vType="car" speedFactor="1.02" vaporized=""/>
    <tripinfo id="NS_151" depart="151.00" departLane="2i_0" departPos="4.10" departSpeed="0.00" departDelay="0.00" arrival="243.00" arrivalLane="1o_0" arrivalPos="492.80" arrivalSpeed="9.18" duration="92.00" routeLength="995.90" waitingTime="0.00" waitingCount="0" stopTime="0.00" timeLoss="8.38" rerouteNo="0" devices="tripinfo_NS_151" vType="car" speedFactor="0.85" vaporized=""/>
    <tripinfo id="NS_153" depart="154.00" departLane="2i_0" departPos="4.10" departSpeed="0.00" departDelay="1.00" arrival="244.00" arrivalLane="1o_0" arrivalPos="492.80" arrivalSpeed="11.05" duration="90.00" routeLength="995.90" waitingTime="0.00" waitingCount="0" stopTime="0.00" timeLoss="29.37" rerouteNo="0" devices="tripinfo_NS_153" vType="car" speedFactor="1.17" vaporized=""/>
    <tripinfo id="WE_164" depart="164.00" departLane="1i_0" departPos="4.10" departSpeed="0.00" departDelay="0.00" arrival="245.00" arrivalLane="4o_0" arrivalPos="492.80" arrivalSpeed="10.17" duration="81.00" routeLength="995.70" waitingTime="0.00" waitingCount="0" stopTime="0.00" timeLoss="10.34" rerouteNo="0" devices="tripinfo_WE_164" vType="car" speedFactor="1.00" vaporized=""/>
    <tripinfo id="WE_167" depart="167.00" departLane="1i_0" departPos="4.10" departSpeed="0.00" departDelay="0.00" arrival="247.00" arrivalLane="3o_0" arrivalPos="492.80" arrivalSpeed="10.71" duration="80.00" routeLength="990.53" waitingTime="0.00" waitingCount="0" stopTime="0.00" timeLoss="8.83" rerouteNo="0" devices="tripinfo_WE_167" vType="car" speedFactor="1.00" vaporized=""/>
    <tripinfo id="WE_173" depart="173.00" departLane="1i_0" departPos="4.10" departSpeed="0.00" departDelay="0.00" arrival="249.00" arrivalLane="3o_0" arrivalPos="492.80" arrivalSpeed="12.69" duration="76.00" routeLength="990.53" waitingTime="0.00" waitingCount="0" stopTime="0.00" timeLoss="13.68" rerouteNo="0" devices="tripinfo_WE_173" vType="car" speedFactor="1.14" vaporized=""/>
    <tripinfo id="NS_168" depart="168.00" departLane="2i_0" departPos="4.10" departSpeed="0.00" departDelay="0.00" arrival="255.00" arrivalLane="4o_0" arrivalPos="492.80" arrivalSpeed="9.34" duration="87.00" routeLength="990.53" waitingTime="0.00" waitingCount="0" stopTime="0.00" timeLoss="8.80" rerouteNo="0" devices="tripinfo_NS_168" vType="car" speedFactor="0.90" vaporized=""/>
    <tripinfo id="NS_197" depart="197.00" departLane="2i_0" departPos="4.10" departSpeed="0.00" departDelay="0.00" arrival="280.00" arrivalLane="3o_0" arrivalPos="492.80" arrivalSpeed="10.22" duration="83.00" routeLength="995.70" waitingTime="0.00" waitingCount="0" stopTime="0.00" timeLoss="10.55" rerouteNo="0" devices="tripinfo_NS_197" vType="car" speedFactor="0.99" vaporized=""/>
    <tripinfo id="WE_199" depart="199.00" departLane="1i_0" departPos="4.10" departSpeed="0.00" departDelay="0.00" arrival="285.00" arrivalLane="4o_0" arrivalPos="492.80" arrivalSpeed="9.14" duration="86.00" routeLength="995.70" waitingTime="0.00" waitingCount="0" stopTime="0.00" timeLoss="10.04" rerouteNo="0" devices="tripinfo_WE_199" vType="car" speedFactor="0.94" vaporized=""/>
    <tripinfo id="WE_200" depart="202.00" departLane="1i_0" departPos="4.10" departSpeed="0.00" departDelay="2.00" arrival="292.00" arrivalLane="2o_0" arrivalPos="492.80" arrivalSpeed="9.12" duration="90.00" routeLength="995.90" waitingTime="0.00" waitingCount="0" stopTime="0.00" timeLoss="9.39" rerouteNo="0" devices="tripinfo_WE_200" vType="car" speedFactor="0.88" vaporized=""/>
    <tripinfo id="WE_201" depart="207.00" departLane="1i_0" departPos="4.10" departSpeed="0.00" departDelay="6.00" arrival="293.00" arrivalLane="3o_0" arrivalPos="492.80" arrivalSpeed="9.57" duration="86.00" routeLength="990.53" waitingTime="0.00" waitingCount="0" stopTime="0.00" timeLoss="8.16" rerouteNo="0" devices="tripinfo_WE_201" vType="car" speedFactor="0.91" vaporized=""/>
    <tripinfo id="NS_211" depart="216.00" departLane="2i_0" departPos="4.10" departSpeed="0.00" departDelay="5.00" arrival="293.00" arrivalLane="4o_0" arrivalPos="492.80" arrivalSpeed="10.43" duration="77.00" routeLength="990.53" waitingTime="0.00" waitingCount="0" stopTime="0.00" timeLoss="7.60" rerouteNo="0" devices="tripinfo_NS_211" vType="car" speedFactor="1.02" vaporized=""/>
    <tripinfo id="NS_214" depart="218.00" departLane="2i_0" departPos="4.10" departSpeed="0.00" departDelay="4.00" arrival="294.00" arrivalLane="1o_0" arrivalPos="492.80" arrivalSpeed="11.20" duration="76.00" routeLength="995.90" waitingTime="0.00" waitingCount="0" stopTime="0.00" timeLoss="8.39" rerouteNo="0" devices="tripinfo_NS_214" vType="car" speedFactor="1.06" vaporized=""/>
    <tripinfo id="WE_208" depart="209.00" departLane="1i_0" departPos="4.10" departSpeed="0.00" departDelay="1.00" arrival="295.00" arrivalLane="3o_0" arrivalPos="492.80" arrivalSpeed="10.71" duration="86.00" routeLength="990.53" waitingTime="0.00" waitingCount="0" stopTime="0.00" timeLoss="17.63" rerouteNo="0" devices="tripinfo_WE_208" vType="car" speedFactor="1.04" vaporized=""/>
    <tripinfo id="WE_211" depart="212.00" departLane="1i_0" departPos="4.10" departSpeed="0.00" departDelay="1.00" arrival="296.00" arrivalLane="3o_0" arrivalPos="492.80" arrivalSpeed="11.12" duration="84.00" routeLength="990.53" waitingTime="0.00" waitingCount="0" stopTime="0.00" timeLoss="15.21" rerouteNo="0" devices="tripinfo_WE_211" vType="car" speedFactor="1.02" vaporized=""/>
    <tripinfo id="WE_212" depart="215.00" departLane="1i_0" departPos="4.10" departSpeed="0.00" departDelay="3.00" arrival="297.00" arrivalLane="2o_0" arrivalPos="492.80" arrivalSpeed="10.04" duration="82.00" routeLength="995.90" waitingTime="0.00" waitingCount="0" stopTime="0.00" timeLoss="8.78" rerouteNo="0" devices="tripinfo_WE_212" vType="car" speedFactor="0.97" vaporized=""/>
    <tripinfo id="WE_225" depart="225.00" departLane="1i_0" departPos="4.10" departSpeed="0.00" departDelay="0.00" arrival="302.00" arrivalLane="4o_0" arrivalPos="492.80" arrivalSpeed="10.92" duration="77.00" routeLength="995.70" waitingTime="0.00" waitingCount="0" stopTime="0.00" timeLoss="8.56" rerouteNo="0" devices="tripinfo_WE_225" vType="car" speedFactor="1.03" vaporized=""/>
    <tripinfo id="NS_222" depart="222.00" departLane="2i_0" departPos="4.10" departSpeed="0.00" departDelay="0.00" arrival="304.00" arrivalLane="3o_0" arrivalPos="492.80" arrivalSpeed="10.06" duration="82.00" routeLength="995.70" waitingTime="0.00" waitingCount="0" stopTime="0.00" timeLoss="10.08" rerouteNo="0" devices="tripinfo_NS_222" vType="car" speedFactor="0.98" vaporized=""/>
    <tripinfo id="NS_227" depart="227.00" departLane="2i_0" departPos="4.10" departSpeed="0.00" departDelay="0.00" arrival="307.00" arrivalLane="3o_0" arrivalPos="492.80" arrivalSpeed="10.86" duration="80.00" routeLength="995.70" waitingTime="0.00" waitingCount="0" stopTime="0.00" timeLoss="9.83" rerouteNo="0" devices="tripinfo_NS_227" vType="car" speedFactor="1.01" vaporized=""/>
    <tripinfo id="WE_228" depart="232.00" departLane="1i_0" departPos="4.10" departSpeed="0.00" departDelay="4.00" arrival="311.00" arrivalLane="2o_0" arrivalPos="492.80" arrivalSpeed="11.44" duration="79.00" routeLength="995.90" waitingTime="0.00" waitingCount="0" stopTime="0.00" timeLoss="13.90" rerouteNo="0" devices="tripinfo_WE_228" vType="car" speedFactor="1.09" vaporized=""/>
    <tripinfo id="WE_226" depart="228.00" departLane="1i_0" departPos="10.10" departSpeed="0.00" departDelay="2.00" arrival="312.00" arrivalLane="3o_0" arrivalPos="492.80" arrivalSpeed="10.73" duration="84.00" routeLength="984.53" waitingTime="0.00" waitingCount="0" stopTime="0.00" timeLoss="12.69" rerouteNo="0" devices="tripinfo_WE_226" vType="truck" speedFactor="0.99" vaporized=""/>
    <tripinfo id="WE_233" depart="235.00" departLane="1i_0" departPos="4.10" departSpeed="0.00" departDelay="2.00" arrival="317.00" arrivalLane="4o_0" arrivalPos="492.80" arrivalSpeed="11.10" duration="82.00" routeLength="995.70" waitingTime="0.00" waitingCount="0" stopTime="0.00" timeLoss="12.37" rerouteNo="0" devices="tripinfo_WE_233" vType="car" speedFactor="1.02" vaporized=""/>
    <tripinfo id="WE_234" depart="238.00" departLane="1i_0" departPos="4.10" departSpeed="0.00" departDelay="4.00" arrival="321.00" arrivalLane="2o_0" arrivalPos="492.80" arrivalSpeed="10.10" duration="83.00" routeLength="995.90" waitingTime="0.00" waitingCount="0" stopTime="0.00" timeLoss="9.87" rerouteNo="0" devices="tripinfo_WE_234" vType="car" speedFactor="0.97" vaporized=""/>
    <tripinfo id="WE_236" depart="244.00" departLane="1i_0" departPos="4.10" departSpeed="0.00" departDelay="8.00" arrival="323.00" arrivalLane="2o_0" arrivalPos="492.80" arrivalSpeed="11.49" duration="79.00" routeLength="995.90" waitingTime="0.00" waitingCount="0" stopTime="0.00" timeLoss="17.04" rerouteNo="0" devices="tripinfo_WE_236" vType="car" speedFactor="1.15" vaporized=""/>
    <tripinfo id="NS_246" depart="246.00" departLane="2i_0" departPos="4.10" departSpeed="0.00" departDelay="0.00" arrival="325.00" arrivalLane="1o_0" arrivalPos="492.80" arrivalSpeed="11.13" duration="79.00" routeLength="995.90" waitingTime="0.00" waitingCount="0" stopTime="0.00" timeLoss="8.37" rerouteNo="0" devices="tripinfo_NS_246" vType="car" speedFactor="1.00" vaporized=""/>
    <tripinfo id="NS_264" depart="264.00" departLane="2i_0" departPos="4.10" departSpeed="0.00" departDelay="0.00" arrival="342.00" arrivalLane="1o_0" arrivalPos="492.80" arrivalSpeed="10.75" duration="78.00" routeLength="995.90" waitingTime="0.00" waitingCount="0" stopTime="0.00" timeLoss="8.01" rerouteNo="0" devices="tripinfo_NS_264" vType="car" speedFactor="1.02" vaporized=""/>
    <tripinfo id="WE_261" depart="261.00" departLane="1i_0" departPos="10.10" departSpeed="0.00" departDelay="0.00" arrival="344.00" arrivalLane="2o_0" arrivalPos="492.80" arrivalSpeed="11.21" duration="83.00" routeLength="989.90" waitingTime="0.00" waitingCount="0" stopTime="0.00" timeLoss="13.00" rerouteNo="0" devices="tripinfo_WE_261" vType="truck" speedFactor="1.01" vaporized=""/>
    <tripinfo id="WE_276" depart="276.00" departLane="1i_0" departPos="4.10" departSpeed="0.00" departDelay="0.00" arrival="362.00" arrivalLane="2o_0" arrivalPos="492.80" arrivalSpeed="9.07" duration="86.00" routeLength="995.90" waitingTime="0.00" waitingCount="0" stopTime="0.00" timeLoss="8.87" rerouteNo="0" devices="tripinfo_WE_276" vType="car" speedFactor="0.92" vaporized=""/>
    <tripinfo id="NS_284" depart="284.00" departLane="2i_0" departPos="4.10" departSpeed="0.00" departDelay="0.00" arrival="365.00" arrivalLane="3o_0" arrivalPos="492.80" arrivalSpeed="10.36" duration="81.00" routeLength="995.70" waitingTime="0.00" waitingCount="0" stopTime="0.00" timeLoss="10.45" rerouteNo="0" devices="tripinfo_NS_284" vType="car" speedFactor="1.01" vaporized=""/>
    <tripinfo id="NS_287" depart="287.00" departLane="2i_0" departPos="4.10" departSpeed="0.00" departDelay="0.00" arrival="374.00" arrivalLane="1o_0" arrivalPos="492.80" arrivalSpeed="8.98" duration="87.00" routeLength="995.90" waitingTime="0.00" waitingCount="0" stopTime="0.00" timeLoss="9.09" rerouteNo="0" devices="tripinfo_NS_287" vType="car" speedFactor="0.91" vaporized=""/>