<?xml version="1.0" encoding="UTF-8"?>

<!-- generated on 2024-05-04 18:19:51 by Eclipse SUMO sumo Version 1.19.0
<configuration xmlns:xsi="http://www.w3.org/2001/XMLSchema-instance" xsi:noNamespaceSchemaLocation="http://sumo.dlr.de/xsd/sumoConfiguration.xsd">

    <input>
        <net-file value="test5.net.xml"/>
        <route-files value="route_gen.rou.xml"/>
    </input>

    <output>
        <tripinfo-output value="tripinfo_epi348.xml"/>
    </output>

    <report>
        <no-warnings value="true"/>
    </report>

    <traci_server>
        <remote-port value="45607"/>
    </traci_server>

</configuration>
-->

<tripinfos xmlns:xsi="http://www.w3.org/2001/XMLSchema-instance" xsi:noNamespaceSchemaLocation="http://sumo.dlr.de/xsd/tripinfo_file.xsd">
    <tripinfo id="WE_5" depart="5.00" departLane="1i_0" departPos="10.10" departSpeed="0.00" departDelay="0.00" arrival="92.00" arrivalLane="2o_0" arrivalPos="492.80" arrivalSpeed="11.33" duration="87.00" routeLength="989.90" waitingTime="0.00" waitingCount="0" stopTime="0.00" timeLoss="18.10" rerouteNo="0" devices="tripinfo_WE_5" vType="truck" speedFactor="1.03" vaporized=""/>
    <tripinfo id="NS_8" depart="8.00" departLane="2i_0" departPos="4.10" departSpeed="0.00" departDelay="0.00" arrival="96.00" arrivalLane="4o_0" arrivalPos="492.80" arrivalSpeed="9.96" duration="88.00" routeLength="990.53" waitingTime="0.00" waitingCount="0" stopTime="0.00" timeLoss="12.91" rerouteNo="0" devices="tripinfo_NS_8" vType="car" speedFactor="0.94" vaporized=""/>
    <tripinfo id="SN_17" depart="17.00" departLane="3i_0" departPos="4.10" departSpeed="0.00" departDelay="0.00" arrival="96.00" arrivalLane="1o_0" arrivalPos="492.80" arrivalSpeed="11.39" duration="79.00" routeLength="995.70" waitingTime="0.00" waitingCount="0" stopTime="0.00" timeLoss="10.24" rerouteNo="0" devices="tripinfo_SN_17" vType="car" speedFactor="1.03" vaporized=""/>
    <tripinfo id="WE_15" depart="15.00" departLane="1i_0" departPos="4.10" departSpeed="0.00" departDelay="0.00" arrival="101.00" arrivalLane="3o_0" arrivalPos="492.80" arrivalSpeed="10.16" duration="86.00" routeLength="990.53" waitingTime="3.00" waitingCount="1" stopTime="0.00" timeLoss="16.41" rerouteNo="0" devices="tripinfo_WE_15" vType="car" speedFactor="1.01" vaporized=""/>
    <tripinfo id="EW_18" depart="18.00" departLane="4i_0" departPos="4.10" departSpeed="0.00" departDelay="0.00" arrival="116.00" arrivalLane="3o_0" arrivalPos="492.80" arrivalSpeed="8.71" duration="98.00" routeLength="995.90" waitingTime="0.00" waitingCount="0" stopTime="0.00" timeLoss="12.79" rerouteNo="0" devices="tripinfo_EW_18" vType="car" speedFactor="0.83" vaporized=""/>
    <tripinfo id="EW_47" depart="47.00" departLane="4i_0" departPos="4.10" departSpeed="0.00" departDelay="0.00" arrival="120.00" arrivalLane="2o_0" arrivalPos="492.80" arrivalSpeed="11.98" duration="73.00" routeLength="995.70" waitingTime="0.00" waitingCount="0" stopTime="0.00" timeLoss="10.10" rerouteNo="0" devices="tripinfo_EW_47" vType="car" speedFactor="1.12" vaporized=""/>
    <tripinfo id="EW_33" depart="33.00" departLane="4i_0" departPos="4.10" departSpeed="0.00" departDelay="0.00" arrival="121.00" arrivalLane="1o_0" arrivalPos="492.80" arrivalSpeed="8.80" duration="88.00" routeLength="990.53" waitingTime="0.00" waitingCount="0" stopTime="0.00" timeLoss="8.13" rerouteNo="0" devices="tripinfo_EW_33" vType="car" speedFactor="0.89" vaporized=""/>
    <tripinfo id="SN_46" depart="46.00" departLane="3i_0" departPos="4.10" departSpeed="0.00" departDelay="0.00" arrival="126.00" arrivalLane="1o_0" arrivalPos="492.80" arrivalSpeed="10.46" duration="80.00" routeLength="995.70" waitingTime="0.00" waitingCount="0" stopTime="0.00" timeLoss="12.55" rerouteNo="0" devices="tripinfo_SN_46" vType="car" speedFactor="1.05" vaporized=""/>
    <tripinfo id="EW_37" depart="37.00" departLane="4i_0" departPos="4.10" departSpeed="0.00" departDelay="0.00" arrival="129.00" arrivalLane="3o_0" arrivalPos="492.80" arrivalSpeed="9.37" duration="92.00" routeLength="995.90" waitingTime="0.00" waitingCount="0" stopTime="0.00" timeLoss="8.66" rerouteNo="0" devices="tripinfo_EW_37" vType="car" speedFactor="0.86" vaporized=""/>
    <tripinfo id="EW_44" depart="44.00" departLane="4i_0" departPos="4.10" departSpeed="0.00" departDelay="0.00" arrival="130.00" arrivalLane="3o_0" arrivalPos="492.80" arrivalSpeed="11.03" duration="86.00" routeLength="995.90" waitingTime="0.00" waitingCount="0" stopTime="0.00" timeLoss="17.18" rerouteNo="0" devices="tripinfo_EW_44" vType="car" speedFactor="1.03" vaporized=""/>
    <tripinfo id="WE_16" depart="18.00" departLane="1i_0" departPos="10.10" departSpeed="0.00" departDelay="2.00" arrival="133.00" arrivalLane="3o_0" arrivalPos="492.80" arrivalSpeed="11.29" duration="115.00" routeLength="984.53" waitingTime="18.00" waitingCount="1" stopTime="0.00" timeLoss="47.04" rerouteNo="0" devices="tripinfo_WE_16" vType="truck" speedFactor="1.04" vaporized=""/>
    <tripinfo id="WE_30" depart="30.00" departLane="1i_0" departPos="4.10" departSpeed="0.00" departDelay="0.00" arrival="135.00" arrivalLane="2o_0" arrivalPos="492.80" arrivalSpeed="10.76" duration="105.00" routeLength="995.90" waitingTime="17.00" waitingCount="2" stopTime="0.00" timeLoss="37.52" rerouteNo="0" devices="tripinfo_WE_30" vType="car" speedFactor="1.05" vaporized=""/>
    <tripinfo id="NS_42" depart="42.00" departLane="2i_0" departPos="4.10" departSpeed="0.00" departDelay="0.00" arrival="135.00" arrivalLane="3o_0" arrivalPos="492.80" arrivalSpeed="11.48" duration="93.00" routeLength="995.70" waitingTime="2.00" waitingCount="1" stopTime="0.00" timeLoss="27.92" rerouteNo="0" devices="tripinfo_NS_42" vType="car" speedFactor="1.09" vaporized=""/>
    <tripinfo id="NS_51" depart="51.00" departLane="2i_0" departPos="4.10" departSpeed="0.00" departDelay="0.00" arrival="136.00" arrivalLane="4o_0" arrivalPos="492.80" arrivalSpeed="10.92" duration="85.00" routeLength="990.53" waitingTime="1.00" waitingCount="1" stopTime="0.00" timeLoss="14.16" rerouteNo="0" devices="tripinfo_NS_51" vType="car" speedFactor="0.99" vaporized=""/>
    <tripinfo id="EW_61" depart="61.00" departLane="4i_0" departPos="4.10" departSpeed="0.00" departDelay="0.00" arrival="137.00" arrivalLane="2o_0" arrivalPos="492.80" arrivalSpeed="12.25" duration="76.00" routeLength="995.70" waitingTime="1.00" waitingCount="1" stopTime="0.00" timeLoss="14.54" rerouteNo="0" devices="tripinfo_EW_61" vType="car" speedFactor="1.16" vaporized=""/>
    <tripinfo id="SN_52" depart="52.00" departLane="3i_0" departPos="4.10" departSpeed="0.00" departDelay="0.00" arrival="138.00" arrivalLane="1o_0" arrivalPos="492.80" arrivalSpeed="9.51" duration="86.00" routeLength="995.70" waitingTime="0.00" waitingCount="0" stopTime="0.00" timeLoss="9.33" rerouteNo="0" devices="tripinfo_SN_52" vType="car" speedFactor="0.93" vaporized=""/>
    <tripinfo id="SN_58" depart="58.00" departLane="3i_0" departPos="4.10" departSpeed="0.00" departDelay="0.00" arrival="147.00" arrivalLane="1o_0" arrivalPos="492.80" arrivalSpeed="9.99" duration="89.00" routeLength="995.70" waitingTime="0.00" waitingCount="0" stopTime="0.00" timeLoss="13.18" rerouteNo="0" devices="tripinfo_SN_58" vType="car" speedFactor="0.94" vaporized=""/>
    <tripinfo id="EW_70" depart="70.00" departLane="4i_0" departPos="4.10" departSpeed="0.00" departDelay="0.00" arrival="148.00" arrivalLane="3o_0" arrivalPos="492.80" arrivalSpeed="10.02" duration="78.00" routeLength="995.90" waitingTime="0.00" waitingCount="0" stopTime="0.00" timeLoss="8.34" rerouteNo="0" devices="tripinfo_EW_70" vType="car" speedFactor="1.02" vaporized=""/>
    <tripinfo id="NS_54" depart="54.00" departLane="2i_0" departPos="4.10" departSpeed="0.00" departDelay="0.00" arrival="149.00" arrivalLane="4o_0" arrivalPos="492.80" arrivalSpeed="9.19" duration="95.00" routeLength="990.53" waitingTime="1.00" waitingCount="1" stopTime="0.00" timeLoss="15.04" rerouteNo="0" devices="tripinfo_NS_54" vType="car" speedFactor="0.88" vaporized=""/>
    <tripinfo id="WE_34" depart="34.00" departLane="1i_0" departPos="4.10" departSpeed="0.00" departDelay="0.00" arrival="151.00" arrivalLane="4o_0" arrivalPos="492.80" arrivalSpeed="9.76" duration="117.00" routeLength="995.70" waitingTime="13.00" waitingCount="3" stopTime="0.00" timeLoss="41.54" rerouteNo="0" devices="tripinfo_WE_34" vType="car" speedFactor="0.94" vaporized=""/>
    <tripinfo id="EW_72" depart="73.00" departLane="4i_0" departPos="4.10" departSpeed="0.00" departDelay="1.00" arrival="151.00" arrivalLane="1o_0" arrivalPos="492.80" arrivalSpeed="11.18" duration="78.00" routeLength="990.53" waitingTime="0.00" waitingCount="0" stopTime="0.00" timeLoss="7.93" rerouteNo="0" devices="tripinfo_EW_72" vType="car" speedFactor="1.01" vaporized=""/>
    <tripinfo id="SN_60" depart="60.00" departLane="3i_0" departPos="4.10" departSpeed="0.00" departDelay="0.00" arrival="153.00" arrivalLane="4o_0" arrivalPos="492.80" arrivalSpeed="9.16" duration="93.00" routeLength="995.90" waitingTime="1.00" waitingCount="1" stopTime="0.00" timeLoss="17.36" rerouteNo="0" devices="tripinfo_SN_60" vType="car" speedFactor="0.94" vaporized=""/>
    <tripinfo id="NS_75" depart="75.00" departLane="2i_0" departPos="4.10" departSpeed="0.00" departDelay="0.00" arrival="162.00" arrivalLane="4o_0" arrivalPos="492.80" arrivalSpeed="10.56" duration="87.00" routeLength="990.53" waitingTime="1.00" waitingCount="1" stopTime="0.00" timeLoss="14.58" rerouteNo="0" devices="tripinfo_NS_75" vType="car" speedFactor="0.97" vaporized=""/>
    <tripinfo id="NS_76" depart="78.00" departLane="2i_0" departPos="4.10" departSpeed="0.00" departDelay="2.00" arrival="172.00" arrivalLane="1o_0" arrivalPos="492.80" arrivalSpeed="9.25" duration="94.00" routeLength="995.90" waitingTime="0.00" waitingCount="0" stopTime="0.00" timeLoss="14.15" rerouteNo="0" devices="tripinfo_NS_76" vType="car" speedFactor="0.89" vaporized=""/>
    <tripinfo id="EW_83" depart="83.00" departLane="4i_0" departPos="4.10" departSpeed="0.00" departDelay="0.00" arrival="174.00" arrivalLane="1o_0" arrivalPos="492.80" arrivalSpeed="9.93" duration="91.00" routeLength="990.53" waitingTime="1.00" waitingCount="1" stopTime="0.00" timeLoss="13.87" rerouteNo="0" devices="tripinfo_EW_83" vType="car" speedFactor="0.92" vaporized=""/>
    <tripinfo id="SN_96" depart="96.00" departLane="3i_0" departPos="4.10" departSpeed="0.00" departDelay="0.00" arrival="175.00" arrivalLane="4o_0" arrivalPos="492.80" arrivalSpeed="11.48" duration="79.00" routeLength="995.90" waitingTime="0.00" waitingCount="0" stopTime="0.00" timeLoss="16.31" rerouteNo="0" devices="tripinfo_SN_96" vType="car" speedFactor="1.13" vaporized=""/>
    <tripinfo id="EW_101" depart="101.00" departLane="4i_0" departPos="4.10" departSpeed="0.00" departDelay="0.00" arrival="175.00" arrivalLane="3o_0" arrivalPos="492.80" arrivalSpeed="11.77" duration="74.00" routeLength="995.90" waitingTime="2.00" waitingCount="1" stopTime="0.00" timeLoss="12.49" rerouteNo="0" devices="tripinfo_EW_101" vType="car" speedFactor="1.15" vaporized=""/>
    <tripinfo id="WE_78" depart="78.00" departLane="1i_0" departPos="4.10" departSpeed="0.00" departDelay="0.00" arrival="176.00" arrivalLane="2o_0" arrivalPos="492.80" arrivalSpeed="9.00" duration="98.00" routeLength="995.90" waitingTime="0.00" waitingCount="0" stopTime="0.00" timeLoss="11.80" rerouteNo="0" devices="tripinfo_WE_78" vType="car" speedFactor="0.83" vaporized=""/>
    <tripinfo id="SN_81" depart="81.00" departLane="3i_0" departPos="4.10" departSpeed="0.00" departDelay="0.00" arrival="181.00" arrivalLane="1o_0" arrivalPos="492.80" arrivalSpeed="9.64" duration="100.00" routeLength="995.70" waitingTime="4.00" waitingCount="1" stopTime="0.00" timeLoss="18.47" rerouteNo="0" devices="tripinfo_SN_81" vType="car" speedFactor="0.87" vaporized=""/>
    <tripinfo id="SN_90" depart="90.00" departLane="3i_0" departPos="4.10" departSpeed="0.00" departDelay="0.00" arrival="183.00" arrivalLane="1o_0" arrivalPos="492.80" arrivalSpeed="10.51" duration="93.00" routeLength="995.70" waitingTime="1.00" waitingCount="1" stopTime="0.00" timeLoss="17.90" rerouteNo="0" devices="tripinfo_SN_90" vType="car" speedFactor="0.95" vaporized=""/>
    <tripinfo id="SN_114" depart="114.00" departLane="3i_0" departPos="4.10" departSpeed="0.00" departDelay="0.00" arrival="185.00" arrivalLane="1o_0" arrivalPos="492.80" arrivalSpeed="12.48" duration="71.00" routeLength="995.70" waitingTime="0.00" waitingCount="0" stopTime="0.00" timeLoss="10.28" rerouteNo="0" devices="tripinfo_SN_114" vType="car" speedFactor="1.17" vaporized=""/>
    <tripinfo id="SN_105" depart="105.00" departLane="3i_0" departPos="4.10" departSpeed="0.00" departDelay="0.00" arrival="186.00" arrivalLane="4o_0" arrivalPos="492.80" arrivalSpeed="10.12" duration="81.00" routeLength="995.90" waitingTime="0.00" waitingCount="0" stopTime="0.00" timeLoss="10.26" rerouteNo="0" devices="tripinfo_SN_105" vType="car" speedFactor="1.01" vaporized=""/>
    <tripinfo id="NS_98" depart="98.00" departLane="2i_0" departPos="4.10" departSpeed="0.00" departDelay="0.00" arrival="188.00" arrivalLane="3o_0" arrivalPos="492.80" arrivalSpeed="9.40" duration="90.00" routeLength="995.70" waitingTime="1.00" waitingCount="1" stopTime="0.00" timeLoss="13.63" rerouteNo="0" devices="tripinfo_NS_98" vType="car" speedFactor="0.93" vaporized=""/>
    <tripinfo id="NS_100" depart="101.00" departLane="2i_0" departPos="4.10" departSpeed="0.00" departDelay="1.00" arrival="188.00" arrivalLane="4o_0" arrivalPos="492.80" arrivalSpeed="12.49" duration="87.00" routeLength="990.53" waitingTime="2.00" waitingCount="2" stopTime="0.00" timeLoss="26.60" rerouteNo="0" devices="tripinfo_NS_100" vType="car" speedFactor="1.18" vaporized=""/>
    <tripinfo id="WE_123" depart="123.00" departLane="1i_0" departPos="4.10" departSpeed="0.00" departDelay="0.00" arrival="192.00" arrivalLane="2o_0" arrivalPos="492.80" arrivalSpeed="12.78" duration="69.00" routeLength="995.90" waitingTime="0.00" waitingCount="0" stopTime="0.00" timeLoss="8.84" rerouteNo="0" devices="tripinfo_WE_123" vType="car" speedFactor="1.18" vaporized=""/>
    <tripinfo id="NS_115" depart="115.00" departLane="2i_0" departPos="4.10" departSpeed="0.00" departDelay="0.00" arrival="201.00" arrivalLane="4o_0" arrivalPos="492.80" arrivalSpeed="10.67" duration="86.00" routeLength="990.53" waitingTime="1.00" waitingCount="1" stopTime="0.00" timeLoss="15.28" rerouteNo="0" devices="tripinfo_NS_115" vType="car" speedFactor="0.99" vaporized=""/>
    <tripinfo id="EW_121" depart="121.00" departLane="4i_0" departPos="4.10" departSpeed="0.00" departDelay="0.00" arrival="203.00" arrivalLane="2o_0" arrivalPos="492.80" arrivalSpeed="10.81" duration="82.00" routeLength="995.70" waitingTime="0.00" waitingCount="0" stopTime="0.00" timeLoss="9.29" rerouteNo="0" devices="tripinfo_EW_121" vType="car" speedFactor="0.97" vaporized=""/>
    <tripinfo id="WE_126" depart="126.00" departLane="1i_0" departPos="4.10" departSpeed="0.00" departDelay="0.00" arrival="203.00" arrivalLane="3o_0" arrivalPos="492.80" arrivalSpeed="11.78" duration="77.00" routeLength="990.53" waitingTime="1.00" waitingCount="1" stopTime="0.00" timeLoss="12.86" rerouteNo="0" devices="tripinfo_WE_126" vType="car" speedFactor="1.10" vaporized=""/>
    <tripinfo id="NS_117" depart="117.00" departLane="2i_0" departPos="4.10" departSpeed="0.00" departDelay="0.00" arrival="207.00" arrivalLane="1o_0" arrivalPos="492.80" arrivalSpeed="10.74" duration="90.00" routeLength="995.90" waitingTime="2.00" waitingCount="2" stopTime="0.00" timeLoss="20.19" rerouteNo="0" devices="tripinfo_NS_117" vType="car" speedFactor="1.02" vaporized=""/>
    <tripinfo id="NS_128" depart="128.00" departLane="2i_0" departPos="4.10" departSpeed="0.00" departDelay="0.00" arrival="214.00" arrivalLane="3o_0" arrivalPos="492.80" arrivalSpeed="11.17" duration="86.00" routeLength="995.70" waitingTime="1.00" waitingCount="1" stopTime="0.00" timeLoss="16.82" rerouteNo="0" devices="tripinfo_NS_128" vType="car" speedFactor="1.03" vaporized=""/>
    <tripinfo id="SN_127" depart="130.00" departLane="3i_0" departPos="4.10" departSpeed="0.00" departDelay="3.00" arrival="217.00" arrivalLane="4o_0" arrivalPos="492.80" arrivalSpeed="9.20" duration="87.00" routeLength="995.90" waitingTime="0.00" waitingCount="0" stopTime="0.00" timeLoss="8.37" rerouteNo="0" devices="tripinfo_SN_127" vType="car" speedFactor="0.90" vaporized=""/>
    <tripinfo id="EW_141" depart="141.00" departLane="4i_0" departPos="4.10" departSpeed="0.00" departDelay="0.00" arrival="217.00" arrivalLane="3o_0" arrivalPos="492.80" arrivalSpeed="10.49" duration="76.00" routeLength="995.90" waitingTime="0.00" waitingCount="0" stopTime="0.00" timeLoss="8.00" rerouteNo="0" devices="tripinfo_EW_141" vType="car" speedFactor="1.04" vaporized=""/>
    <tripinfo id="SN_132" depart="135.00" departLane="3i_0" departPos="4.10" departSpeed="0.00" departDelay="3.00" arrival="219.00" arrivalLane="4o_0" arrivalPos="492.80" arrivalSpeed="10.63" duration="84.00" routeLength="995.90" waitingTime="0.00" waitingCount="0" stopTime="0.00" timeLoss="10.01" rerouteNo="0" devices="tripinfo_SN_132" vType="car" speedFactor="0.96" vaporized=""/>
    <tripinfo id="NS_136" depart="137.00" departLane="2i_0" departPos="4.10" departSpeed="0.00" departDelay="1.00" arrival="222.00" arrivalLane="3o_0" arrivalPos="492.80" arrivalSpeed="11.49" duration="85.00" routeLength="995.70" waitingTime="1.00" waitingCount="1" stopTime="0.00" timeLoss="16.98" rerouteNo="0" devices="tripinfo_NS_136" vType="car" speedFactor="1.04" vaporized=""/>
    <tripinfo id="WE_134" depart="134.00" departLane="1i_0" departPos="10.10" departSpeed="0.00" departDelay="0.00" arrival="233.00" arrivalLane="2o_0" arrivalPos="492.80" arrivalSpeed="11.07" duration="99.00" routeLength="989.90" waitingTime="11.00" waitingCount="2" stopTime="0.00" timeLoss="31.29" rerouteNo="0" devices="tripinfo_WE_134" vType="truck" speedFactor="1.05" vaporized=""/>
    <tripinfo id="SN_146" depart="148.00" departLane="3i_0" departPos="4.10" departSpeed="0.00" departDelay="2.00" arrival="235.00" arrivalLane="4o_0" arrivalPos="492.80" arrivalSpeed="8.83" duration="87.00" routeLength="995.90" waitingTime="0.00" waitingCount="0" stopTime="0.00" timeLoss="8.22" rerouteNo="0" devices="tripinfo_SN_146" vType="car" speedFactor="0.90" vaporized=""/>
    <tripinfo id="NS_151" depart="151.00" departLane="2i_0" departPos="4.10" departSpeed="0.00" departDelay="0.00" arrival="246.00" arrivalLane="3o_0" arrivalPos="492.80" arrivalSpeed="8.72" duration="95.00" routeLength="995.70" waitingTime="1.00" waitingCount="1" stopTime="0.00" timeLoss="13.75" rerouteNo="0" devices="tripinfo_NS_151" vType="car" speedFactor="0.88" vaporized=""/>
    <tripinfo id="EW_146" depart="146.00" departLane="4i_0" departPos="10.10" departSpeed="0.00" departDelay="0.00" arrival="250.00" arrivalLane="2o_0" arrivalPos="492.80" arrivalSpeed="11.06" duration="104.00" routeLength="989.70" waitingTime="10.00" waitingCount="1" stopTime="0.00" timeLoss="33.19" rerouteNo="0" devices="tripinfo_EW_146" vType="truck" speedFactor="1.00" vaporized=""/>
    <tripinfo id="SN_180" depart="180.00" departLane="3i_0" departPos="4.10" departSpeed="0.00" departDelay="0.00" arrival="252.00" arrivalLane="2o_0" arrivalPos="492.80" arrivalSpeed="11.66" duration="72.00" routeLength="990.53" waitingTime="0.00" waitingCount="0" stopTime="0.00" timeLoss="10.28" rerouteNo="0" devices="tripinfo_SN_180" vType="car" speedFactor="1.14" vaporized=""/>
    <tripinfo id="EW_153" depart="153.00" departLane="4i_0" departPos="10.10" departSpeed="0.00" departDelay="0.00" arrival="256.00" arrivalLane="3o_0" arrivalPos="492.80" arrivalSpeed="10.09" duration="103.00" routeLength="989.90" waitingTime="4.00" waitingCount="1" stopTime="0.00" timeLoss="26.69" rerouteNo="0" devices="tripinfo_EW_153" vType="truck" speedFactor="0.93" vaporized=""/>
    <tripinfo id="WE_146" depart="147.00" departLane="1i_0" departPos="4.10" departSpeed="0.00" departDelay="1.00" arrival="257.00" arrivalLane="2o_0" arrivalPos="492.80" arrivalSpeed="11.47" duration="110.00" routeLength="995.90" waitingTime="24.00" waitingCount="4" stopTime="0.00" timeLoss="45.06" rerouteNo="0" devices="tripinfo_WE_146" vType="car" speedFactor="1.09" vaporized=""/>
    <tripinfo id="NS_165" depart="165.00" departLane="2i_0" departPos="10.10" departSpeed="0.00" departDelay="0.00" arrival="258.00" arrivalLane="3o_0" arrivalPos="492.80" arrivalSpeed="11.46" duration="93.00" routeLength="989.70" waitingTime="0.00" waitingCount="0" stopTime="0.00" timeLoss="26.67" rerouteNo="0" devices="tripinfo_NS_165" vType="truck" speedFactor="1.08" vaporized=""/>
    <tripinfo id="EW_168" depart="168.00" departLane="4i_0" departPos="4.10" departSpeed="0.00" departDelay="0.00" arrival="263.00" arrivalLane="3o_0" arrivalPos="492.80" arrivalSpeed="10.20" duration="95.00" routeLength="995.90" waitingTime="3.00" waitingCount="2" stopTime="0.00" timeLoss="25.01" rerouteNo="0" devices="tripinfo_EW_168" vType="car" speedFactor="1.02" vaporized=""/>
    <tripinfo id="EW_171" depart="171.00" departLane="4i_0" departPos="4.10" departSpeed="0.00" departDelay="0.00" arrival="266.00" arrivalLane="2o_0" arrivalPos="492.80" arrivalSpeed="9.99" duration="95.00" routeLength="995.70" waitingTime="2.00" waitingCount="1" stopTime="0.00" timeLoss="23.86" rerouteNo="0" devices="tripinfo_EW_171" vType="car" speedFactor="1.00" vaporized=""/>
    <tripinfo id="NS_183" depart="183.00" departLane="2i_0" departPos="4.10" departSpeed="0.00" departDelay="0.00" arrival="268.00" arrivalLane="1o_0" arrivalPos="492.80" arrivalSpeed="10.17" duration="85.00" routeLength="995.90" waitingTime="1.00" waitingCount="1" stopTime="0.00" timeLoss="15.28" rerouteNo="0" devices="tripinfo_NS_183" vType="car" speedFactor="1.02" vaporized=""/>
    <tripinfo id="EW_176" depart="176.00" departLane="4i_0" departPos="4.10" departSpeed="0.00" departDelay="0.00" arrival="272.00" arrivalLane="1o_0" arrivalPos="492.80" arrivalSpeed="10.39" duration="96.00" routeLength="990.53" waitingTime="2.00" waitingCount="2" stopTime="0.00" timeLoss="24.66" rerouteNo="0" devices="tripinfo_EW_176" vType="car" speedFactor="1.00" vaporized=""/>
    <tripinfo id="SN_185" depart="185.00" departLane="3i_0" departPos="4.10" departSpeed="0.00" departDelay="0.00" arrival="273.00" arrivalLane="4o_0" arrivalPos="492.80" arrivalSpeed="9.89" duration="88.00" routeLength="995.90" waitingTime="3.00" waitingCount="1" stopTime="0.00" timeLoss="14.05" rerouteNo="0" devices="tripinfo_SN_185" vType="car" speedFactor="0.97" vaporized=""/>
    <tripinfo id="EW_180" depart="180.00" departLane="4i_0" departPos="4.10" departSpeed="0.00" departDelay="0.00" arrival="279.00" arrivalLane="1o_0" arrivalPos="492.80" arrivalSpeed="9.84" duration="99.00" routeLength="990.53" waitingTime="1.00" waitingCount="1" stopTime="0.00" timeLoss="20.71" rerouteNo="0" devices="tripinfo_EW_180" vType="car" speedFactor="0.90" vaporized=""/>
    <tripinfo id="WE_153" depart="153.00" departLane="1i_0" departPos="4.10" departSpeed="0.00" departDelay="0.00" arrival="283.00" arrivalLane="2o_0" arrivalPos="492.80" arrivalSpeed="8.89" duration="130.00" routeLength="995.90" waitingTime="22.00" waitingCount="5" stopTime="0.00" timeLoss="46.87" rerouteNo="0" devices="tripinfo_WE_153" vType="car" speedFactor="0.85" vaporized=""/>
    <tripinfo id="NS_197" depart="197.00" departLane="2i_0" departPos="4.10" departSpeed="0.00" departDelay="0.00" arrival="284.00" arrivalLane="4o_0" arrivalPos="492.80" arrivalSpeed="9.78" duration="87.00" routeLength="990.53" waitingTime="1.00" waitingCount="1" stopTime="0.00" timeLoss="15.07" rerouteNo="0" devices="tripinfo_NS_197" vType="car" speedFactor="0.99" vaporized=""/>
    <tripinfo id="WE_169" depart="169.00" departLane="1i_0" departPos="4.10" departSpeed="0.00" departDelay="0.00" arrival="285.00" arrivalLane="4o_0" arrivalPos="492.80" arrivalSpeed="11.09" duration="116.00" routeLength="995.70" waitingTime="20.00" waitingCount="5" stopTime="0.00" timeLoss="51.57" rerouteNo="0" devices="tripinfo_WE_169" vType="car" speedFactor="1.10" vaporized=""/>
    <tripinfo id="EW_190" depart="190.00" departLane="4i_0" departPos="4.10" departSpeed="0.00" departDelay="0.00" arrival="285.00" arrivalLane="2o_0" arrivalPos="492.80" arrivalSpeed="11.19" duration="95.00" routeLength="995.70" waitingTime="1.00" waitingCount="1" stopTime="0.00" timeLoss="31.31" rerouteNo="0" devices="tripinfo_EW_190" vType="car" speedFactor="1.12" vaporized=""/>
    <tripinfo id="WE_187" depart="187.00" departLane="1i_0" departPos="10.10" departSpeed="0.00" departDelay="0.00" arrival="288.00" arrivalLane="3o_0" arrivalPos="492.80" arrivalSpeed="11.48" duration="101.00" routeLength="984.53" waitingTime="4.00" waitingCount="1" stopTime="0.00" timeLoss="33.56" rerouteNo="0" devices="tripinfo_WE_187" vType="truck" speedFactor="1.04" vaporized=""/>
    <tripinfo id="NS_210" depart="210.00" departLane="2i_0" departPos="4.10" departSpeed="0.00" departDelay="0.00" arrival="297.00" arrivalLane="1o_0" arrivalPos="492.80" arrivalSpeed="11.24" duration="87.00" routeLength="995.90" waitingTime="1.00" waitingCount="1" stopTime="0.00" timeLoss="17.62" rerouteNo="0" devices="tripinfo_NS_210" vType="car" speedFactor="1.02" vaporized=""/>
    <tripinfo id="NS_207" depart="207.00" departLane="2i_0" departPos="4.10" departSpeed="0.00" departDelay="0.00" arrival="298.00" arrivalLane="3o_0" arrivalPos="492.80" arrivalSpeed="9.07" duration="91.00" routeLength="995.70" waitingTime="1.00" waitingCount="1" stopTime="0.00" timeLoss="13.60" rerouteNo="0" devices="tripinfo_NS_207" vType="car" speedFactor="0.91" vaporized=""/>
    <tripinfo id="SN_220" depart="220.00" departLane="3i_0" departPos="4.10" departSpeed="0.00" departDelay="0.00" arrival="298.00" arrivalLane="4o_0" arrivalPos="492.80" arrivalSpeed="10.99" duration="78.00" routeLength="995.90" waitingTime="0.00" waitingCount="0" stopTime="0.00" timeLoss="10.43" rerouteNo="0" devices="tripinfo_SN_220" vType="car" speedFactor="1.06" vaporized=""/>
    <tripinfo id="WE_197" depart="197.00" departLane="1i_0" departPos="4.10" departSpeed="0.00" departDelay="0.00" arrival="300.00" arrivalLane="3o_0" arrivalPos="492.80" arrivalSpeed="10.69" duration="103.00" routeLength="990.53" waitingTime="2.00" waitingCount="1" stopTime="0.00" timeLoss="33.38" rerouteNo="0" devices="tripinfo_WE_197" vType="car" speedFactor="1.02" vaporized=""/>
    <tripinfo id="EW_218" depart="219.00" departLane="4i_0" departPos="4.10" departSpeed="0.00" departDelay="1.00" arrival="302.00" arrivalLane="3o_0" arrivalPos="492.80" arrivalSpeed="10.33" duration="83.00" routeLength="995.90" waitingTime="0.00" waitingCount="0" stopTime="0.00" timeLoss="13.12" rerouteNo="0" devices="tripinfo_EW_218" vType="car" speedFactor="1.02" vaporized=""/>
    <tripinfo id="SN_223" depart="223.00" departLane="3i_0" departPos="4.10" departSpeed="0.00" departDelay="0.00" arrival="305.00" arrivalLane="2o_0" arrivalPos="492.80" arrivalSpeed="9.97" duration="82.00" routeLength="990.53" waitingTime="0.00" waitingCount="0" stopTime="0.00" timeLoss="8.32" rerouteNo="0" devices="tripinfo_SN_223" vType="car" speedFactor="0.96" vaporized=""/>
    <tripinfo id="EW_220" depart="222.00" departLane="4i_0" departPos="4.10" departSpeed="0.00" departDelay="2.00" arrival="308.00" arrivalLane="2o_0" arrivalPos="492.80" arrivalSpeed="9.33" duration="86.00" routeLength="995.70" waitingTime="0.00" waitingCount="0" stopTime="0.00" timeLoss="10.61" rerouteNo="0" devices="tripinfo_EW_220" vType="car" speedFactor="0.94" vaporized=""/>
    <tripinfo id="WE_205" depart="207.00" departLane="1i_0" departPos="4.10" departSpeed="0.00" departDelay="2.00" arrival="313.00" arrivalLane="2o_0" arrivalPos="492.80" arrivalSpeed="10.14" duration="106.00" routeLength="995.90" waitingTime="5.00" waitingCount="1" stopTime="0.00" timeLoss="30.02" rerouteNo="0" devices="tripinfo_WE_205" vType="car" speedFactor="0.94" vaporized=""/>
    <tripinfo id="SN_228" depart="228.00" departLane="3i_0" departPos="4.10" departSpeed="0.00" departDelay="0.00" arrival="314.00" arrivalLane="2o_0" arrivalPos="492.80" arrivalSpeed="10.47" duration="86.00" routeLength="990.53" waitingTime="0.00" waitingCount="0" stopTime="0.00" timeLoss="14.67" rerouteNo="0" devices="tripinfo_SN_228" vType="car" speedFactor="0.98" vaporized=""/>
    <tripinfo id="EW_230" depart="230.00" departLane="4i_0" departPos="4.10" departSpeed="0.00" departDelay="0.00" arrival="317.00" arrivalLane="2o_0" arrivalPos="492.80" arrivalSpeed="11.44" duration="87.00" routeLength="995.70" waitingTime="6.00" waitingCount="1" stopTime="0.00" timeLoss="18.05" rerouteNo="0" devices="tripinfo_EW_230" vType="car" speedFactor="1.03" vaporized=""/>
    <tripinfo id="NS_238" depart="238.00" departLane="2i_0" departPos="4.10" departSpeed="0.00" departDelay="0.00" arrival="321.00" arrivalLane="4o_0" arrivalPos="492.80" arrivalSpeed="10.68" duration="83.00" routeLength="990.53" waitingTime="1.00" waitingCount="1" stopTime="0.00" timeLoss="12.82" rerouteNo="0" devices="tripinfo_NS_238" vType="car" speedFactor="1.01" vaporized=""/>
    <tripinfo id="SN_245" depart="246.00" departLane="3i_0" departPos="4.10" departSpeed="0.00" departDelay="1.00" arrival="325.00" arrivalLane="2o_0" arrivalPos="492.80" arrivalSpeed="10.23" duration="79.00" routeLength="990.53" waitingTime="0.00" waitingCount="0" stopTime="0.00" timeLoss="8.14" rerouteNo="0" devices="tripinfo_SN_245" vType="car" speedFactor="1.00" vaporized=""/>
    <tripinfo id="WE_206" depart="210.00" departLane="1i_0" departPos="4.10" departSpeed="0.00" departDelay="4.00" arrival="332.00" arrivalLane="4o_0" arrivalPos="492.80" arrivalSpeed="9.41" duration="122.00" routeLength="995.70" waitingTime="15.00" waitingCount="3" stopTime="0.00" timeLoss="41.37" rerouteNo="0" devices="tripinfo_WE_206" vType="car" speedFactor="0.88" vaporized=""/>