<?xml version="1.0" encoding="UTF-8"?>

<!-- generated on 2024-05-04 19:48:48 by Eclipse SUMO sumo Version 1.19.0
<configuration xmlns:xsi="http://www.w3.org/2001/XMLSchema-instance" xsi:noNamespaceSchemaLocation="http://sumo.dlr.de/xsd/sumoConfiguration.xsd">

    <input>
        <net-file value="test5.net.xml"/>
        <route-files value="route_gen.rou.xml"/>
    </input>

    <output>
        <tripinfo-output value="tripinfo_epi658.xml"/>
    </output>

    <report>
        <no-warnings value="true"/>
    </report>

    <traci_server>
        <remote-port value="42121"/>
    </traci_server>

</configuration>
-->

<tripinfos xmlns:xsi="http://www.w3.org/2001/XMLSchema-instance" xsi:noNamespaceSchemaLocation="http://sumo.dlr.de/xsd/tripinfo_file.xsd">
    <tripinfo id="SN_7" depart="7.00" departLane="3i_0" departPos="4.10" departSpeed="0.00" departDelay="0.00" arrival="81.00" arrivalLane="2o_0" arrivalPos="492.80" arrivalSpeed="10.77" duration="74.00" routeLength="990.53" waitingTime="0.00" waitingCount="0" stopTime="0.00" timeLoss="7.35" rerouteNo="0" devices="tripinfo_SN_7" vType="car" speedFactor="1.06" vaporized=""/>
    <tripinfo id="WE_11" depart="11.00" departLane="1i_0" departPos="4.10" departSpeed="0.00" departDelay="0.00" arrival="91.00" arrivalLane="3o_0" arrivalPos="492.80" arrivalSpeed="10.14" duration="80.00" routeLength="990.53" waitingTime="1.00" waitingCount="1" stopTime="0.00" timeLoss="10.17" rerouteNo="0" devices="tripinfo_WE_11" vType="car" speedFactor="1.01" vaporized=""/>
    <tripinfo id="NS_12" depart="12.00" departLane="2i_0" departPos="4.10" departSpeed="0.00" departDelay="0.00" arrival="93.00" arrivalLane="3o_0" arrivalPos="492.80" arrivalSpeed="11.68" duration="81.00" routeLength="995.70" waitingTime="0.00" waitingCount="0" stopTime="0.00" timeLoss="15.19" rerouteNo="0" devices="tripinfo_NS_12" vType="car" speedFactor="1.08" vaporized=""/>
    <tripinfo id="SN_9" depart="10.00" departLane="3i_0" departPos="10.10" departSpeed="0.00" departDelay="1.00" arrival="94.00" arrivalLane="2o_0" arrivalPos="492.80" arrivalSpeed="10.67" duration="84.00" routeLength="984.53" waitingTime="0.00" waitingCount="0" stopTime="0.00" timeLoss="11.84" rerouteNo="0" devices="tripinfo_SN_9" vType="truck" speedFactor="0.97" vaporized=""/>
    <tripinfo id="NS_15" depart="15.00" departLane="2i_0" departPos="4.10" departSpeed="0.00" departDelay="0.00" arrival="95.00" arrivalLane="3o_0" arrivalPos="492.80" arrivalSpeed="10.50" duration="80.00" routeLength="995.70" waitingTime="0.00" waitingCount="0" stopTime="0.00" timeLoss="12.13" rerouteNo="0" devices="tripinfo_NS_15" vType="car" speedFactor="1.05" vaporized=""/>
    <tripinfo id="SN_12" depart="14.00" departLane="3i_0" departPos="4.10" departSpeed="0.00" departDelay="2.00" arrival="98.00" arrivalLane="4o_0" arrivalPos="492.80" arrivalSpeed="10.29" duration="84.00" routeLength="995.90" waitingTime="0.00" waitingCount="0" stopTime="0.00" timeLoss="15.14" rerouteNo="0" devices="tripinfo_SN_12" vType="car" speedFactor="1.03" vaporized=""/>
    <tripinfo id="WE_20" depart="20.00" departLane="1i_0" departPos="4.10" departSpeed="0.00" departDelay="0.00" arrival="110.00" arrivalLane="3o_0" arrivalPos="492.80" arrivalSpeed="9.20" duration="90.00" routeLength="990.53" waitingTime="0.00" waitingCount="0" stopTime="0.00" timeLoss="7.85" rerouteNo="0" devices="tripinfo_WE_20" vType="car" speedFactor="0.86" vaporized=""/>
    <tripinfo id="NS_16" depart="18.00" departLane="2i_0" departPos="4.10" departSpeed="0.00" departDelay="2.00" arrival="112.00" arrivalLane="3o_0" arrivalPos="492.80" arrivalSpeed="9.66" duration="94.00" routeLength="995.70" waitingTime="0.00" waitingCount="0" stopTime="0.00" timeLoss="14.21" rerouteNo="0" devices="tripinfo_NS_16" vType="car" speedFactor="0.89" vaporized=""/>
    <tripinfo id="EW_13" depart="13.00" departLane="4i_0" departPos="4.10" departSpeed="0.00" departDelay="0.00" arrival="113.00" arrivalLane="2o_0" arrivalPos="492.80" arrivalSpeed="8.06" duration="100.00" routeLength="995.70" waitingTime="0.00" waitingCount="0" stopTime="0.00" timeLoss="14.39" rerouteNo="0" devices="tripinfo_EW_13" vType="car" speedFactor="0.83" vaporized=""/>
    <tripinfo id="SN_17" depart="17.00" departLane="3i_0" departPos="4.10" departSpeed="0.00" departDelay="0.00" arrival="114.00" arrivalLane="1o_0" arrivalPos="492.80" arrivalSpeed="10.38" duration="97.00" routeLength="995.70" waitingTime="2.00" waitingCount="2" stopTime="0.00" timeLoss="21.44" rerouteNo="0" devices="tripinfo_SN_17" vType="car" speedFactor="0.94" vaporized=""/>
    <tripinfo id="EW_25" depart="25.00" departLane="4i_0" departPos="4.10" departSpeed="0.00" departDelay="0.00" arrival="114.00" arrivalLane="2o_0" arrivalPos="492.80" arrivalSpeed="10.14" duration="89.00" routeLength="995.70" waitingTime="0.00" waitingCount="0" stopTime="0.00" timeLoss="20.13" rerouteNo="0" devices="tripinfo_EW_25" vType="car" speedFactor="1.03" vaporized=""/>
    <tripinfo id="NS_29" depart="29.00" departLane="2i_0" departPos="4.10" departSpeed="0.00" departDelay="0.00" arrival="114.00" arrivalLane="3o_0" arrivalPos="492.80" arrivalSpeed="11.46" duration="85.00" routeLength="995.70" waitingTime="0.00" waitingCount="0" stopTime="0.00" timeLoss="17.10" rerouteNo="0" devices="tripinfo_NS_29" vType="car" speedFactor="1.05" vaporized=""/>
    <tripinfo id="SN_20" depart="21.00" departLane="3i_0" departPos="10.10" departSpeed="0.00" departDelay="1.00" arrival="115.00" arrivalLane="4o_0" arrivalPos="492.80" arrivalSpeed="11.02" duration="94.00" routeLength="989.90" waitingTime="2.00" waitingCount="1" stopTime="0.00" timeLoss="26.43" rerouteNo="0" devices="tripinfo_SN_20" vType="truck" speedFactor="1.05" vaporized=""/>
    <tripinfo id="EW_32" depart="32.00" departLane="4i_0" departPos="4.10" departSpeed="0.00" departDelay="0.00" arrival="116.00" arrivalLane="1o_0" arrivalPos="492.80" arrivalSpeed="11.24" duration="84.00" routeLength="990.53" waitingTime="0.00" waitingCount="0" stopTime="0.00" timeLoss="20.89" rerouteNo="0" devices="tripinfo_EW_32" vType="car" speedFactor="1.12" vaporized=""/>
    <tripinfo id="NS_34" depart="34.00" departLane="2i_0" departPos="4.10" departSpeed="0.00" departDelay="0.00" arrival="122.00" arrivalLane="3o_0" arrivalPos="492.80" arrivalSpeed="10.21" duration="88.00" routeLength="995.70" waitingTime="4.00" waitingCount="1" stopTime="0.00" timeLoss="16.44" rerouteNo="0" devices="tripinfo_NS_34" vType="car" speedFactor="0.99" vaporized=""/>
    <tripinfo id="EW_39" depart="39.00" departLane="4i_0" departPos="4.10" departSpeed="0.00" departDelay="0.00" arrival="128.00" arrivalLane="2o_0" arrivalPos="492.80" arrivalSpeed="10.27" duration="89.00" routeLength="995.70" waitingTime="0.00" waitingCount="0" stopTime="0.00" timeLoss="12.58" rerouteNo="0" devices="tripinfo_EW_39" vType="car" speedFactor="0.93" vaporized=""/>
    <tripinfo id="WE_40" depart="40.00" departLane="1i_0" departPos="4.10" departSpeed="0.00" departDelay="0.00" arrival="134.00" arrivalLane="2o_0" arrivalPos="492.80" arrivalSpeed="9.66" duration="94.00" routeLength="995.90" waitingTime="0.00" waitingCount="0" stopTime="0.00" timeLoss="13.30" rerouteNo="0" devices="tripinfo_WE_40" vType="car" speedFactor="0.88" vaporized=""/>
    <tripinfo id="EW_40" depart="42.00" departLane="4i_0" departPos="4.10" departSpeed="0.00" departDelay="2.00" arrival="136.00" arrivalLane="2o_0" arrivalPos="492.80" arrivalSpeed="10.42" duration="94.00" routeLength="995.70" waitingTime="3.00" waitingCount="1" stopTime="0.00" timeLoss="18.54" rerouteNo="0" devices="tripinfo_EW_40" vType="car" speedFactor="0.94" vaporized=""/>
    <tripinfo id="WE_49" depart="49.00" departLane="1i_0" departPos="4.10" departSpeed="0.00" departDelay="0.00" arrival="138.00" arrivalLane="2o_0" arrivalPos="492.80" arrivalSpeed="10.18" duration="89.00" routeLength="995.90" waitingTime="0.00" waitingCount="0" stopTime="0.00" timeLoss="18.37" rerouteNo="0" devices="tripinfo_WE_49" vType="car" speedFactor="1.01" vaporized=""/>
    <tripinfo id="SN_43" depart="43.00" departLane="3i_0" departPos="10.10" departSpeed="0.00" departDelay="0.00" arrival="140.00" arrivalLane="2o_0" arrivalPos="492.80" arrivalSpeed="11.67" duration="97.00" routeLength="984.53" waitingTime="8.00" waitingCount="2" stopTime="0.00" timeLoss="30.79" rerouteNo="0" devices="tripinfo_SN_43" vType="truck" speedFactor="1.08" vaporized=""/>
    <tripinfo id="NS_42" depart="42.00" departLane="2i_0" departPos="4.10" departSpeed="0.00" departDelay="0.00" arrival="141.00" arrivalLane="3o_0" arrivalPos="492.80" arrivalSpeed="9.17" duration="99.00" routeLength="995.70" waitingTime="10.00" waitingCount="1" stopTime="0.00" timeLoss="22.91" rerouteNo="0" devices="tripinfo_NS_42" vType="car" speedFactor="0.94" vaporized=""/>
    <tripinfo id="NS_48" depart="48.00" departLane="2i_0" departPos="4.10" departSpeed="0.00" departDelay="0.00" arrival="143.00" arrivalLane="3o_0" arrivalPos="492.80" arrivalSpeed="10.36" duration="95.00" routeLength="995.70" waitingTime="8.00" waitingCount="1" stopTime="0.00" timeLoss="24.77" rerouteNo="0" devices="tripinfo_NS_48" vType="car" speedFactor="1.02" vaporized=""/>
    <tripinfo id="EW_50" depart="50.00" departLane="4i_0" departPos="4.10" departSpeed="0.00" departDelay="0.00" arrival="144.00" arrivalLane="3o_0" arrivalPos="492.80" arrivalSpeed="10.43" duration="94.00" routeLength="995.90" waitingTime="4.00" waitingCount="2" stopTime="0.00" timeLoss="21.51" rerouteNo="0" devices="tripinfo_EW_50" vType="car" speedFactor="0.97" vaporized=""/>
    <tripinfo id="EW_52" depart="52.00" departLane="4i_0" departPos="4.10" departSpeed="0.00" departDelay="0.00" arrival="149.00" arrivalLane="1o_0" arrivalPos="492.80" arrivalSpeed="9.66" duration="97.00" routeLength="990.53" waitingTime="2.00" waitingCount="2" stopTime="0.00" timeLoss="17.93" rerouteNo="0" devices="tripinfo_EW_52" vType="car" speedFactor="0.89" vaporized=""/>
    <tripinfo id="EW_57" depart="57.00" departLane="4i_0" departPos="4.10" departSpeed="0.00" departDelay="0.00" arrival="154.00" arrivalLane="3o_0" arrivalPos="492.80" arrivalSpeed="9.29" duration="97.00" routeLength="995.90" waitingTime="0.00" waitingCount="0" stopTime="0.00" timeLoss="15.59" rerouteNo="0" devices="tripinfo_EW_57" vType="car" speedFactor="0.87" vaporized=""/>
    <tripinfo id="SN_62" depart="62.00" departLane="3i_0" departPos="4.10" departSpeed="0.00" departDelay="0.00" arrival="155.00" arrivalLane="2o_0" arrivalPos="492.80" arrivalSpeed="9.84" duration="93.00" routeLength="990.53" waitingTime="0.00" waitingCount="0" stopTime="0.00" timeLoss="15.87" rerouteNo="0" devices="tripinfo_SN_62" vType="car" speedFactor="0.92" vaporized=""/>
    <tripinfo id="SN_53" depart="53.00" departLane="3i_0" departPos="4.10" departSpeed="0.00" departDelay="0.00" arrival="156.00" arrivalLane="4o_0" arrivalPos="492.80" arrivalSpeed="8.42" duration="103.00" routeLength="995.90" waitingTime="0.00" waitingCount="0" stopTime="0.00" timeLoss="17.39" rerouteNo="0" devices="tripinfo_SN_53" vType="car" speedFactor="0.83" vaporized=""/>
    <tripinfo id="WE_72" depart="72.00" departLane="1i_0" departPos="4.10" departSpeed="0.00" departDelay="0.00" arrival="156.00" arrivalLane="3o_0" arrivalPos="492.80" arrivalSpeed="11.68" duration="84.00" routeLength="990.53" waitingTime="0.00" waitingCount="0" stopTime="0.00" timeLoss="21.34" rerouteNo="0" devices="tripinfo_WE_72" vType="car" speedFactor="1.13" vaporized=""/>
    <tripinfo id="EW_63" depart="63.00" departLane="4i_0" departPos="4.10" departSpeed="0.00" departDelay="0.00" arrival="157.00" arrivalLane="2o_0" arrivalPos="492.80" arrivalSpeed="10.12" duration="94.00" routeLength="995.70" waitingTime="0.00" waitingCount="0" stopTime="0.00" timeLoss="19.00" rerouteNo="0" devices="tripinfo_EW_63" vType="car" speedFactor="0.95" vaporized=""/>
    <tripinfo id="NS_77" depart="77.00" departLane="2i_0" departPos="4.10" departSpeed="0.00" departDelay="0.00" arrival="157.00" arrivalLane="3o_0" arrivalPos="492.80" arrivalSpeed="11.72" duration="80.00" routeLength="995.70" waitingTime="0.00" waitingCount="0" stopTime="0.00" timeLoss="20.08" rerouteNo="0" devices="tripinfo_NS_77" vType="car" speedFactor="1.18" vaporized=""/>
    <tripinfo id="EW_76" depart="76.00" departLane="4i_0" departPos="4.10" departSpeed="0.00" departDelay="0.00" arrival="162.00" arrivalLane="3o_0" arrivalPos="492.80" arrivalSpeed="10.29" duration="86.00" routeLength="995.90" waitingTime="0.00" waitingCount="0" stopTime="0.00" timeLoss="9.98" rerouteNo="0" devices="tripinfo_EW_76" vType="car" speedFactor="0.93" vaporized=""/>
    <tripinfo id="WE_79" depart="79.00" departLane="1i_0" departPos="4.10" departSpeed="0.00" departDelay="0.00" arrival="164.00" arrivalLane="3o_0" arrivalPos="492.80" arrivalSpeed="11.16" duration="85.00" routeLength="990.53" waitingTime="0.00" waitingCount="0" stopTime="0.00" timeLoss="14.71" rerouteNo="0" devices="tripinfo_WE_79" vType="car" speedFactor="1.01" vaporized=""/>
    <tripinfo id="NS_78" depart="81.00" departLane="2i_0" departPos="4.10" departSpeed="0.00" departDelay="3.00" arrival="166.00" arrivalLane="3o_0" arrivalPos="492.80" arrivalSpeed="12.37" duration="85.00" routeLength="995.70" waitingTime="0.00" waitingCount="0" stopTime="0.00" timeLoss="23.11" rerouteNo="0" devices="tripinfo_NS_78" vType="car" speedFactor="1.15" vaporized=""/>
    <tripinfo id="NS_92" depart="94.00" departLane="2i_0" departPos="4.10" departSpeed="0.00" departDelay="2.00" arrival="168.00" arrivalLane="1o_0" arrivalPos="492.80" arrivalSpeed="12.80" duration="74.00" routeLength="995.90" waitingTime="3.00" waitingCount="1" stopTime="0.00" timeLoss="12.93" rerouteNo="0" devices="tripinfo_NS_92" vType="car" speedFactor="1.17" vaporized=""/>
    <tripinfo id="WE_97" depart="98.00" departLane="1i_0" departPos="4.10" departSpeed="0.00" departDelay="1.00" arrival="169.00" arrivalLane="3o_0" arrivalPos="492.80" arrivalSpeed="12.58" duration="71.00" routeLength="990.53" waitingTime="0.00" waitingCount="0" stopTime="0.00" timeLoss="11.42" rerouteNo="0" devices="tripinfo_WE_97" vType="car" speedFactor="1.18" vaporized=""/>
    <tripinfo id="WE_95" depart="95.00" departLane="1i_0" departPos="4.10" departSpeed="0.00" departDelay="0.00" arrival="177.00" arrivalLane="2o_0" arrivalPos="492.80" arrivalSpeed="9.94" duration="82.00" routeLength="995.90" waitingTime="0.00" waitingCount="0" stopTime="0.00" timeLoss="8.67" rerouteNo="0" devices="tripinfo_WE_95" vType="car" speedFactor="0.97" vaporized=""/>
    <tripinfo id="EW_94" depart="94.00" departLane="4i_0" departPos="4.10" departSpeed="0.00" departDelay="0.00" arrival="181.00" arrivalLane="2o_0" arrivalPos="492.80" arrivalSpeed="10.41" duration="87.00" routeLength="995.70" waitingTime="2.00" waitingCount="2" stopTime="0.00" timeLoss="15.45" rerouteNo="0" devices="tripinfo_EW_94" vType="car" speedFactor="0.99" vaporized=""/>
    <tripinfo id="NS_94" depart="97.00" departLane="2i_0" departPos="4.10" departSpeed="0.00" departDelay="3.00" arrival="183.00" arrivalLane="1o_0" arrivalPos="492.80" arrivalSpeed="11.25" duration="86.00" routeLength="995.90" waitingTime="4.00" waitingCount="1" stopTime="0.00" timeLoss="16.31" rerouteNo="0" devices="tripinfo_NS_94" vType="car" speedFactor="1.02" vaporized=""/>
    <tripinfo id="EW_99" depart="99.00" departLane="4i_0" departPos="4.10" departSpeed="0.00" departDelay="0.00" arrival="183.00" arrivalLane="2o_0" arrivalPos="492.80" arrivalSpeed="11.57" duration="84.00" routeLength="995.70" waitingTime="0.00" waitingCount="0" stopTime="0.00" timeLoss="19.23" rerouteNo="0" devices="tripinfo_EW_99" vType="car" speedFactor="1.10" vaporized=""/>
    <tripinfo id="SN_109" depart="110.00" departLane="3i_0" departPos="4.10" departSpeed="0.00" departDelay="1.00" arrival="185.00" arrivalLane="2o_0" arrivalPos="492.80" arrivalSpeed="12.13" duration="75.00" routeLength="990.53" waitingTime="0.00" waitingCount="0" stopTime="0.00" timeLoss="9.85" rerouteNo="0" devices="tripinfo_SN_109" vType="car" speedFactor="1.09" vaporized=""/>
    <tripinfo id="WE_103" depart="103.00" departLane="1i_0" departPos="4.10" departSpeed="0.00" departDelay="0.00" arrival="189.00" arrivalLane="3o_0" arrivalPos="492.80" arrivalSpeed="8.87" duration="86.00" routeLength="990.53" waitingTime="0.00" waitingCount="0" stopTime="0.00" timeLoss="7.59" rerouteNo="0" devices="tripinfo_WE_103" vType="car" speedFactor="0.90" vaporized=""/>
    <tripinfo id="WE_104" depart="105.00" departLane="1i_0" departPos="4.10" departSpeed="0.00" departDelay="1.00" arrival="191.00" arrivalLane="3o_0" arrivalPos="492.80" arrivalSpeed="11.10" duration="86.00" routeLength="990.53" waitingTime="0.00" waitingCount="0" stopTime="0.00" timeLoss="16.77" rerouteNo="0" devices="tripinfo_WE_104" vType="car" speedFactor="1.03" vaporized=""/>
    <tripinfo id="NS_105" depart="105.00" departLane="2i_0" departPos="4.10" departSpeed="0.00" departDelay="0.00" arrival="192.00" arrivalLane="1o_0" arrivalPos="492.80" arrivalSpeed="9.96" duration="87.00" routeLength="995.90" waitingTime="0.00" waitingCount="0" stopTime="0.00" timeLoss="12.60" rerouteNo="0" devices="tripinfo_NS_105" vType="car" speedFactor="0.96" vaporized=""/>
    <tripinfo id="SN_111" depart="112.00" departLane="3i_0" departPos="4.10" departSpeed="0.00" departDelay="1.00" arrival="193.00" arrivalLane="1o_0" arrivalPos="492.80" arrivalSpeed="10.78" duration="81.00" routeLength="995.70" waitingTime="0.00" waitingCount="0" stopTime="0.00" timeLoss="13.32" rerouteNo="0" devices="tripinfo_SN_111" vType="car" speedFactor="1.04" vaporized=""/>
    <tripinfo id="WE_112" depart="112.00" departLane="1i_0" departPos="4.10" departSpeed="0.00" departDelay="0.00" arrival="194.00" arrivalLane="4o_0" arrivalPos="492.80" arrivalSpeed="11.11" duration="82.00" routeLength="995.70" waitingTime="4.00" waitingCount="1" stopTime="0.00" timeLoss="16.33" rerouteNo="0" devices="tripinfo_WE_112" vType="car" speedFactor="1.09" vaporized=""/>
    <tripinfo id="SN_113" depart="116.00" departLane="3i_0" departPos="10.10" departSpeed="0.00" departDelay="3.00" arrival="200.00" arrivalLane="4o_0" arrivalPos="492.80" arrivalSpeed="10.80" duration="84.00" routeLength="989.90" waitingTime="0.00" waitingCount="0" stopTime="0.00" timeLoss="13.11" rerouteNo="0" devices="tripinfo_SN_113" vType="truck" speedFactor="1.00" vaporized=""/>
    <tripinfo id="EW_114" depart="115.00" departLane="4i_0" departPos="4.10" departSpeed="0.00" departDelay="1.00" arrival="204.00" arrivalLane="1o_0" arrivalPos="492.80" arrivalSpeed="9.04" duration="89.00" routeLength="990.53" waitingTime="0.00" waitingCount="0" stopTime="0.00" timeLoss="8.01" rerouteNo="0" devices="tripinfo_EW_114" vType="car" speedFactor="0.88" vaporized=""/>
    <tripinfo id="NS_110" depart="110.00" departLane="2i_0" departPos="10.10" departSpeed="0.00" departDelay="0.00" arrival="212.00" arrivalLane="4o_0" arrivalPos="492.80" arrivalSpeed="10.82" duration="102.00" routeLength="984.53" waitingTime="13.00" waitingCount="2" stopTime="0.00" timeLoss="33.02" rerouteNo="0" devices="tripinfo_NS_110" vType="truck" speedFactor="1.02" vaporized=""/>
    <tripinfo id="EW_119" depart="119.00" departLane="4i_0" departPos="4.10" departSpeed="0.00" departDelay="0.00" arrival="213.00" arrivalLane="2o_0" arrivalPos="492.80" arrivalSpeed="8.40" duration="94.00" routeLength="995.70" waitingTime="0.00" waitingCount="0" stopTime="0.00" timeLoss="10.90" rerouteNo="0" devices="tripinfo_EW_119" vType="car" speedFactor="0.85" vaporized=""/>
    <tripinfo id="WE_125" depart="125.00" departLane="1i_0" departPos="4.10" departSpeed="0.00" departDelay="0.00" arrival="215.00" arrivalLane="2o_0" arrivalPos="492.80" arrivalSpeed="11.73" duration="90.00" routeLength="995.90" waitingTime="5.00" waitingCount="1" stopTime="0.00" timeLoss="28.75" rerouteNo="0" devices="tripinfo_WE_125" vType="car" speedFactor="1.17" vaporized=""/>
    <tripinfo id="WE_114" depart="116.00" departLane="1i_0" departPos="10.10" departSpeed="0.00" departDelay="2.00" arrival="217.00" arrivalLane="3o_0" arrivalPos="492.80" arrivalSpeed="10.02" duration="101.00" routeLength="984.53" waitingTime="6.00" waitingCount="1" stopTime="0.00" timeLoss="26.65" rerouteNo="0" devices="tripinfo_WE_114" vType="truck" speedFactor="0.95" vaporized=""/>
    <tripinfo id="EW_136" depart="136.00" departLane="4i_0" departPos="4.10" departSpeed="0.00" departDelay="0.00" arrival="219.00" arrivalLane="3o_0" arrivalPos="492.80" arrivalSpeed="12.00" duration="83.00" routeLength="995.90" waitingTime="0.00" waitingCount="0" stopTime="0.00" timeLoss="18.03" rerouteNo="0" devices="tripinfo_EW_136" vType="car" speedFactor="1.10" vaporized=""/>
    <tripinfo id="NS_114" depart="115.00" departLane="2i_0" departPos="10.10" departSpeed="0.00" departDelay="1.00" arrival="224.00" arrivalLane="1o_0" arrivalPos="492.80" arrivalSpeed="9.92" duration="109.00" routeLength="989.90" waitingTime="7.00" waitingCount="1" stopTime="0.00" timeLoss="32.40" rerouteNo="0" devices="tripinfo_NS_114" vType="truck" speedFactor="0.93" vaporized=""/>
    <tripinfo id="SN_144" depart="144.00" departLane="3i_0" departPos="4.10" departSpeed="0.00" departDelay="0.00" arrival="224.00" arrivalLane="2o_0" arrivalPos="492.80" arrivalSpeed="10.07" duration="80.00" routeLength="990.53" waitingTime="0.00" waitingCount="0" stopTime="0.00" timeLoss="9.42" rerouteNo="0" devices="tripinfo_SN_144" vType="car" speedFactor="1.00" vaporized=""/>
    <tripinfo id="NS_128" depart="128.00" departLane="2i_0" departPos="4.10" departSpeed="0.00" departDelay="0.00" arrival="226.00" arrivalLane="1o_0" arrivalPos="492.80" arrivalSpeed="10.27" duration="98.00" routeLength="995.90" waitingTime="3.00" waitingCount="1" stopTime="0.00" timeLoss="28.20" rerouteNo="0" devices="tripinfo_NS_128" vType="car" speedFactor="1.02" vaporized=""/>
    <tripinfo id="EW_150" depart="150.00" departLane="4i_0" departPos="4.10" departSpeed="0.00" departDelay="0.00" arrival="233.00" arrivalLane="1o_0" arrivalPos="492.80" arrivalSpeed="10.35" duration="83.00" routeLength="990.53" waitingTime="2.00" waitingCount="1" stopTime="0.00" timeLoss="12.15" rerouteNo="0" devices="tripinfo_EW_150" vType="car" speedFactor="1.00" vaporized=""/>
    <tripinfo id="EW_161" depart="161.00" departLane="4i_0" departPos="4.10" departSpeed="0.00" departDelay="0.00" arrival="240.00" arrivalLane="3o_0" arrivalPos="492.80" arrivalSpeed="10.29" duration="79.00" routeLength="995.90" waitingTime="0.00" waitingCount="0" stopTime="0.00" timeLoss="9.47" rerouteNo="0" devices="tripinfo_EW_161" vType="car" speedFactor="1.02" vaporized=""/>
    <tripinfo id="NS_157" depart="157.00" departLane="2i_0" departPos="4.10" departSpeed="0.00" departDelay="0.00" arrival="244.00" arrivalLane="4o_0" arrivalPos="492.80" arrivalSpeed="9.94" duration="87.00" routeLength="990.53" waitingTime="0.00" waitingCount="0" stopTime="0.00" timeLoss="8.27" rerouteNo="0" devices="tripinfo_NS_157" vType="car" speedFactor="0.90" vaporized=""/>
    <tripinfo id="WE_158" depart="158.00" departLane="1i_0" departPos="4.10" departSpeed="0.00" departDelay="0.00" arrival="246.00" arrivalLane="4o_0" arrivalPos="492.80" arrivalSpeed="11.91" duration="88.00" routeLength="995.70" waitingTime="3.00" waitingCount="1" stopTime="0.00" timeLoss="25.65" rerouteNo="0" devices="tripinfo_WE_158" vType="car" speedFactor="1.14" vaporized=""/>
    <tripinfo id="NS_162" depart="164.00" departLane="2i_0" departPos="4.10" departSpeed="0.00" departDelay="2.00" arrival="248.00" arrivalLane="4o_0" arrivalPos="492.80" arrivalSpeed="10.74" duration="84.00" routeLength="990.53" waitingTime="4.00" waitingCount="1" stopTime="0.00" timeLoss="18.31" rerouteNo="0" devices="tripinfo_NS_162" vType="car" speedFactor="1.08" vaporized=""/>
    <tripinfo id="NS_161" depart="161.00" departLane="2i_0" departPos="4.10" departSpeed="0.00" departDelay="0.00" arrival="251.00" arrivalLane="1o_0" arrivalPos="492.80" arrivalSpeed="10.50" duration="90.00" routeLength="995.90" waitingTime="4.00" waitingCount="1" stopTime="0.00" timeLoss="16.77" rerouteNo="0" devices="tripinfo_NS_161" vType="car" speedFactor="0.97" vaporized=""/>
    <tripinfo id="EW_169" depart="169.00" departLane="4i_0" departPos="4.10" departSpeed="0.00" departDelay="0.00" arrival="253.00" arrivalLane="3o_0" arrivalPos="492.80" arrivalSpeed="11.22" duration="84.00" routeLength="995.90" waitingTime="2.00" waitingCount="1" stopTime="0.00" timeLoss="13.61" rerouteNo="0" devices="tripinfo_EW_169" vType="car" speedFactor="1.02" vaporized=""/>
    <tripinfo id="NS_167" depart="167.00" departLane="2i_0" departPos="4.10" departSpeed="0.00" departDelay="0.00" arrival="254.00" arrivalLane="3o_0" arrivalPos="492.80" arrivalSpeed="11.60" duration="87.00" routeLength="995.70" waitingTime="3.00" waitingCount="1" stopTime="0.00" timeLoss="23.81" rerouteNo="0" devices="tripinfo_NS_167" vType="car" speedFactor="1.12" vaporized=""/>
    <tripinfo id="EW_174" depart="174.00" departLane="4i_0" departPos="4.10" departSpeed="0.00" departDelay="0.00" arrival="258.00" arrivalLane="3o_0" arrivalPos="492.80" arrivalSpeed="10.20" duration="84.00" routeLength="995.90" waitingTime="0.00" waitingCount="0" stopTime="0.00" timeLoss="12.25" rerouteNo="0" devices="tripinfo_EW_174" vType="car" speedFactor="0.99" vaporized=""/>
    <tripinfo id="WE_183" depart="183.00" departLane="1i_0" departPos="4.10" departSpeed="0.00" departDelay="0.00" arrival="268.00" arrivalLane="2o_0" arrivalPos="492.80" arrivalSpeed="9.97" duration="85.00" routeLength="995.90" waitingTime="0.00" waitingCount="0" stopTime="0.00" timeLoss="9.30" rerouteNo="0" devices="tripinfo_WE_183" vType="car" speedFactor="0.94" vaporized=""/>
    <tripinfo id="WE_184" depart="185.00" departLane="1i_0" departPos="4.10" departSpeed="0.00" departDelay="1.00" arrival="274.00" arrivalLane="3o_0" arrivalPos="492.80" arrivalSpeed="9.69" duration="89.00" routeLength="990.53" waitingTime="0.00" waitingCount="0" stopTime="0.00" timeLoss="8.99" rerouteNo="0" devices="tripinfo_WE_184" vType="car" speedFactor="0.88" vaporized=""/>
    <tripinfo id="EW_190" depart="190.00" departLane="4i_0" departPos="4.10" departSpeed="0.00" departDelay="0.00" arrival="277.00" arrivalLane="3o_0" arrivalPos="492.80" arrivalSpeed="10.76" duration="87.00" routeLength="995.90" waitingTime="1.00" waitingCount="1" stopTime="0.00" timeLoss="19.06" rerouteNo="0" devices="tripinfo_EW_190" vType="car" speedFactor="1.04" vaporized=""/>
    <tripinfo id="EW_184" depart="184.00" departLane="4i_0" departPos="4.10" departSpeed="0.00" departDelay="0.00" arrival="279.00" arrivalLane="2o_0" arrivalPos="492.80" arrivalSpeed="9.16" duration="95.00" routeLength="995.70" waitingTime="4.00" waitingCount="1" stopTime="0.00" timeLoss="16.75" rerouteNo="0" devices="tripinfo_EW_184" vType="car" speedFactor="0.91" vaporized=""/>
    <tripinfo id="EW_186" depart="187.00" departLane="4i_0" departPos="4.10" departSpeed="0.00" departDelay="1.00" arrival="282.00" arrivalLane="2o_0" arrivalPos="492.80" arrivalSpeed="9.39" duration="95.00" routeLength="995.70" waitingTime="1.00" waitingCount="1" stopTime="0.00" timeLoss="17.59" rerouteNo="0" devices="tripinfo_EW_186" vType="car" speedFactor="0.91" vaporized=""/>
    <tripinfo id="NS_199" depart="199.00" departLane="2i_0" departPos="4.10" departSpeed="0.00" departDelay="0.00" arrival="287.00" arrivalLane="1o_0" arrivalPos="492.80" arrivalSpeed="9.99" duration="88.00" routeLength="995.90" waitingTime="2.00" waitingCount="1" stopTime="0.00" timeLoss="14.78" rerouteNo="0" devices="tripinfo_NS_199" vType="car" speedFactor="0.97" vaporized=""/>
    <tripinfo id="EW_205" depart="205.00" departLane="4i_0" departPos="4.10" departSpeed="0.00" departDelay="0.00" arrival="290.00" arrivalLane="3o_0" arrivalPos="492.80" arrivalSpeed="10.62" duration="85.00" routeLength="995.90" waitingTime="1.00" waitingCount="1" stopTime="0.00" timeLoss="12.94" rerouteNo="0" devices="tripinfo_EW_205" vType="car" speedFactor="0.98" vaporized=""/>
    <tripinfo id="NS_206" depart="206.00" departLane="2i_0" departPos="4.10" departSpeed="0.00" departDelay="0.00" arrival="292.00" arrivalLane="1o_0" arrivalPos="492.80" arrivalSpeed="9.61" duration="86.00" routeLength="995.90" waitingTime="0.00" waitingCount="0" stopTime="0.00" timeLoss="13.65" rerouteNo="0" devices="tripinfo_NS_206" vType="car" speedFactor="0.98" vaporized=""/>
    <tripinfo id="EW_206" depart="207.00" departLane="4i_0" departPos="4.10" departSpeed="0.00" departDelay="1.00" arrival="294.00" arrivalLane="2o_0" arrivalPos="492.80" arrivalSpeed="10.69" duration="87.00" routeLength="995.70" waitingTime="0.00" waitingCount="0" stopTime="0.00" timeLoss="18.00" rerouteNo="0" devices="tripinfo_EW_206" vType="car" speedFactor="1.03" vaporized=""/>
    <tripinfo id="WE_195" depart="195.00" departLane="1i_0" departPos="10.10" departSpeed="0.00" departDelay="0.00" arrival="296.00" arrivalLane="4o_0" arrivalPos="492.80" arrivalSpeed="11.12" duration="101.00" routeLength="989.70" waitingTime="8.00" waitingCount="1" stopTime="0.00" timeLoss="31.45" rerouteNo="0" devices="tripinfo_WE_195" vType="truck" speedFactor="1.01" vaporized=""/>
    <tripinfo id="EW_207" depart="212.00" departLane="4i_0" departPos="4.10" departSpeed="0.00" departDelay="5.00" arrival="296.00" arrivalLane="3o_0" arrivalPos="492.80" arrivalSpeed="11.65" duration="84.00" routeLength="995.90" waitingTime="1.00" waitingCount="1" stopTime="0.00" timeLoss="18.88" rerouteNo="0" devices="tripinfo_EW_207" vType="car" speedFactor="1.09" vaporized=""/>
    <tripinfo id="EW_208" depart="215.00" departLane="4i_0" departPos="4.10" departSpeed="0.00" departDelay="7.00" arrival="300.00" arrivalLane="1o_0" arrivalPos="492.80" arrivalSpeed="10.94" duration="85.00" routeLength="990.53" waitingTime="0.00" waitingCount="0" stopTime="0.00" timeLoss="16.98" rerouteNo="0" devices="tripinfo_EW_208" vType="car" speedFactor="1.03" vaporized=""/>