<?xml version="1.0" encoding="UTF-8"?>

<!-- generated on 2024-05-04 18:42:39 by Eclipse SUMO sumo Version 1.19.0
<configuration xmlns:xsi="http://www.w3.org/2001/XMLSchema-instance" xsi:noNamespaceSchemaLocation="http://sumo.dlr.de/xsd/sumoConfiguration.xsd">

    <input>
        <net-file value="test5.net.xml"/>
        <route-files value="route_gen.rou.xml"/>
    </input>

    <output>
        <tripinfo-output value="tripinfo_epi424.xml"/>
    </output>

    <report>
        <no-warnings value="true"/>
    </report>

    <traci_server>
        <remote-port value="39449"/>
    </traci_server>

</configuration>
-->

<tripinfos xmlns:xsi="http://www.w3.org/2001/XMLSchema-instance" xsi:noNamespaceSchemaLocation="http://sumo.dlr.de/xsd/tripinfo_file.xsd">
    <tripinfo id="EW_6" depart="6.00" departLane="4i_0" departPos="4.10" departSpeed="0.00" departDelay="0.00" arrival="83.00" arrivalLane="3o_0" arrivalPos="492.80" arrivalSpeed="10.51" duration="77.00" routeLength="995.90" waitingTime="0.00" waitingCount="0" stopTime="0.00" timeLoss="7.82" rerouteNo="0" devices="tripinfo_EW_6" vType="car" speedFactor="1.03" vaporized=""/>
    <tripinfo id="SN_5" depart="5.00" departLane="3i_0" departPos="4.10" departSpeed="0.00" departDelay="0.00" arrival="84.00" arrivalLane="1o_0" arrivalPos="492.80" arrivalSpeed="10.99" duration="79.00" routeLength="995.70" waitingTime="0.00" waitingCount="0" stopTime="0.00" timeLoss="13.22" rerouteNo="0" devices="tripinfo_SN_5" vType="car" speedFactor="1.08" vaporized=""/>
    <tripinfo id="SN_2" depart="2.00" departLane="3i_0" departPos="4.10" departSpeed="0.00" departDelay="0.00" arrival="85.00" arrivalLane="4o_0" arrivalPos="492.80" arrivalSpeed="10.14" duration="83.00" routeLength="995.90" waitingTime="0.00" waitingCount="0" stopTime="0.00" timeLoss="7.53" rerouteNo="0" devices="tripinfo_SN_2" vType="car" speedFactor="0.94" vaporized=""/>
    <tripinfo id="NS_2" depart="2.00" departLane="2i_0" departPos="4.10" departSpeed="0.00" departDelay="0.00" arrival="87.00" arrivalLane="4o_0" arrivalPos="492.80" arrivalSpeed="11.59" duration="85.00" routeLength="990.53" waitingTime="1.00" waitingCount="1" stopTime="0.00" timeLoss="18.06" rerouteNo="0" devices="tripinfo_NS_2" vType="car" speedFactor="1.06" vaporized=""/>
    <tripinfo id="WE_3" depart="3.00" departLane="1i_0" departPos="4.10" departSpeed="0.00" departDelay="0.00" arrival="91.00" arrivalLane="3o_0" arrivalPos="492.80" arrivalSpeed="10.63" duration="88.00" routeLength="990.53" waitingTime="4.00" waitingCount="2" stopTime="0.00" timeLoss="17.73" rerouteNo="0" devices="tripinfo_WE_3" vType="car" speedFactor="1.01" vaporized=""/>
    <tripinfo id="EW_22" depart="22.00" departLane="4i_0" departPos="4.10" departSpeed="0.00" departDelay="0.00" arrival="99.00" arrivalLane="3o_0" arrivalPos="492.80" arrivalSpeed="11.35" duration="77.00" routeLength="995.90" waitingTime="0.00" waitingCount="0" stopTime="0.00" timeLoss="7.89" rerouteNo="0" devices="tripinfo_EW_22" vType="car" speedFactor="1.03" vaporized=""/>
    <tripinfo id="SN_10" depart="10.00" departLane="3i_0" departPos="4.10" departSpeed="0.00" departDelay="0.00" arrival="104.00" arrivalLane="2o_0" arrivalPos="492.80" arrivalSpeed="8.77" duration="94.00" routeLength="990.53" waitingTime="0.00" waitingCount="0" stopTime="0.00" timeLoss="8.88" rerouteNo="0" devices="tripinfo_SN_10" vType="car" speedFactor="0.83" vaporized=""/>
    <tripinfo id="SN_13" depart="13.00" departLane="3i_0" departPos="4.10" departSpeed="0.00" departDelay="0.00" arrival="106.00" arrivalLane="1o_0" arrivalPos="492.80" arrivalSpeed="10.38" duration="93.00" routeLength="995.70" waitingTime="6.00" waitingCount="1" stopTime="0.00" timeLoss="24.80" rerouteNo="0" devices="tripinfo_SN_13" vType="car" speedFactor="1.05" vaporized=""/>
    <tripinfo id="EW_16" depart="16.00" departLane="4i_0" departPos="4.10" departSpeed="0.00" departDelay="0.00" arrival="106.00" arrivalLane="2o_0" arrivalPos="492.80" arrivalSpeed="8.68" duration="90.00" routeLength="995.70" waitingTime="0.00" waitingCount="0" stopTime="0.00" timeLoss="9.69" rerouteNo="0" devices="tripinfo_EW_16" vType="car" speedFactor="0.89" vaporized=""/>
    <tripinfo id="WE_26" depart="26.00" departLane="1i_0" departPos="4.10" departSpeed="0.00" departDelay="0.00" arrival="111.00" arrivalLane="3o_0" arrivalPos="492.80" arrivalSpeed="11.52" duration="85.00" routeLength="990.53" waitingTime="0.00" waitingCount="0" stopTime="0.00" timeLoss="17.22" rerouteNo="0" devices="tripinfo_WE_26" vType="car" speedFactor="1.05" vaporized=""/>
    <tripinfo id="WE_18" depart="18.00" departLane="1i_0" departPos="4.10" departSpeed="0.00" departDelay="0.00" arrival="114.00" arrivalLane="2o_0" arrivalPos="492.80" arrivalSpeed="10.32" duration="96.00" routeLength="995.90" waitingTime="4.00" waitingCount="1" stopTime="0.00" timeLoss="20.52" rerouteNo="0" devices="tripinfo_WE_18" vType="car" speedFactor="0.94" vaporized=""/>
    <tripinfo id="EW_35" depart="35.00" departLane="4i_0" departPos="4.10" departSpeed="0.00" departDelay="0.00" arrival="119.00" arrivalLane="2o_0" arrivalPos="492.80" arrivalSpeed="10.30" duration="84.00" routeLength="995.70" waitingTime="0.00" waitingCount="0" stopTime="0.00" timeLoss="12.49" rerouteNo="0" devices="tripinfo_EW_35" vType="car" speedFactor="0.99" vaporized=""/>
    <tripinfo id="WE_32" depart="32.00" departLane="1i_0" departPos="4.10" departSpeed="0.00" departDelay="0.00" arrival="121.00" arrivalLane="2o_0" arrivalPos="492.80" arrivalSpeed="11.52" duration="89.00" routeLength="995.90" waitingTime="7.00" waitingCount="1" stopTime="0.00" timeLoss="25.42" rerouteNo="0" devices="tripinfo_WE_32" vType="car" speedFactor="1.12" vaporized=""/>
    <tripinfo id="SN_20" depart="20.00" departLane="3i_0" departPos="4.10" departSpeed="0.00" departDelay="0.00" arrival="124.00" arrivalLane="4o_0" arrivalPos="492.80" arrivalSpeed="8.49" duration="104.00" routeLength="995.90" waitingTime="3.00" waitingCount="2" stopTime="0.00" timeLoss="21.29" rerouteNo="0" devices="tripinfo_SN_20" vType="car" speedFactor="0.86" vaporized=""/>
    <tripinfo id="EW_39" depart="39.00" departLane="4i_0" departPos="4.10" departSpeed="0.00" departDelay="0.00" arrival="124.00" arrivalLane="1o_0" arrivalPos="492.80" arrivalSpeed="10.25" duration="85.00" routeLength="990.53" waitingTime="0.00" waitingCount="0" stopTime="0.00" timeLoss="8.82" rerouteNo="0" devices="tripinfo_EW_39" vType="car" speedFactor="0.93" vaporized=""/>
    <tripinfo id="EW_40" depart="41.00" departLane="4i_0" departPos="4.10" departSpeed="0.00" departDelay="1.00" arrival="126.00" arrivalLane="1o_0" arrivalPos="492.80" arrivalSpeed="10.21" duration="85.00" routeLength="990.53" waitingTime="0.00" waitingCount="0" stopTime="0.00" timeLoss="10.10" rerouteNo="0" devices="tripinfo_EW_40" vType="car" speedFactor="0.94" vaporized=""/>
    <tripinfo id="SN_21" depart="23.00" departLane="3i_0" departPos="4.10" departSpeed="0.00" departDelay="2.00" arrival="128.00" arrivalLane="1o_0" arrivalPos="492.80" arrivalSpeed="12.07" duration="105.00" routeLength="995.70" waitingTime="8.00" waitingCount="2" stopTime="0.00" timeLoss="39.63" rerouteNo="0" devices="tripinfo_SN_21" vType="car" speedFactor="1.09" vaporized=""/>
    <tripinfo id="EW_52" depart="52.00" departLane="4i_0" departPos="4.10" departSpeed="0.00" departDelay="0.00" arrival="132.00" arrivalLane="3o_0" arrivalPos="492.80" arrivalSpeed="10.90" duration="80.00" routeLength="995.90" waitingTime="0.00" waitingCount="0" stopTime="0.00" timeLoss="9.16" rerouteNo="0" devices="tripinfo_EW_52" vType="car" speedFactor="1.01" vaporized=""/>
    <tripinfo id="NS_40" depart="40.00" departLane="2i_0" departPos="4.10" departSpeed="0.00" departDelay="0.00" arrival="133.00" arrivalLane="1o_0" arrivalPos="492.80" arrivalSpeed="10.16" duration="93.00" routeLength="995.90" waitingTime="4.00" waitingCount="2" stopTime="0.00" timeLoss="16.89" rerouteNo="0" devices="tripinfo_NS_40" vType="car" speedFactor="0.94" vaporized=""/>
    <tripinfo id="EW_55" depart="55.00" departLane="4i_0" departPos="4.10" departSpeed="0.00" departDelay="0.00" arrival="136.00" arrivalLane="3o_0" arrivalPos="492.80" arrivalSpeed="10.79" duration="81.00" routeLength="995.90" waitingTime="0.00" waitingCount="0" stopTime="0.00" timeLoss="8.55" rerouteNo="0" devices="tripinfo_EW_55" vType="car" speedFactor="0.97" vaporized=""/>
    <tripinfo id="WE_49" depart="49.00" departLane="1i_0" departPos="4.10" departSpeed="0.00" departDelay="0.00" arrival="144.00" arrivalLane="2o_0" arrivalPos="492.80" arrivalSpeed="10.54" duration="95.00" routeLength="995.90" waitingTime="13.00" waitingCount="1" stopTime="0.00" timeLoss="25.71" rerouteNo="0" devices="tripinfo_WE_49" vType="car" speedFactor="1.02" vaporized=""/>
    <tripinfo id="SN_40" depart="42.00" departLane="3i_0" departPos="4.10" departSpeed="0.00" departDelay="2.00" arrival="150.00" arrivalLane="4o_0" arrivalPos="492.80" arrivalSpeed="12.08" duration="108.00" routeLength="995.90" waitingTime="18.00" waitingCount="2" stopTime="0.00" timeLoss="46.28" rerouteNo="0" devices="tripinfo_SN_40" vType="car" speedFactor="1.16" vaporized=""/>
    <tripinfo id="EW_62" depart="62.00" departLane="4i_0" departPos="4.10" departSpeed="0.00" departDelay="0.00" arrival="151.00" arrivalLane="2o_0" arrivalPos="492.80" arrivalSpeed="9.91" duration="89.00" routeLength="995.70" waitingTime="0.00" waitingCount="0" stopTime="0.00" timeLoss="13.97" rerouteNo="0" devices="tripinfo_EW_62" vType="car" speedFactor="0.95" vaporized=""/>
    <tripinfo id="EW_59" depart="59.00" departLane="4i_0" departPos="4.10" departSpeed="0.00" departDelay="0.00" arrival="153.00" arrivalLane="1o_0" arrivalPos="492.80" arrivalSpeed="8.81" duration="94.00" routeLength="990.53" waitingTime="0.00" waitingCount="0" stopTime="0.00" timeLoss="7.96" rerouteNo="0" devices="tripinfo_EW_59" vType="car" speedFactor="0.83" vaporized=""/>
    <tripinfo id="SN_39" depart="39.00" departLane="3i_0" departPos="4.10" departSpeed="0.00" departDelay="0.00" arrival="156.00" arrivalLane="1o_0" arrivalPos="492.80" arrivalSpeed="9.49" duration="117.00" routeLength="995.70" waitingTime="19.00" waitingCount="3" stopTime="0.00" timeLoss="36.21" rerouteNo="0" devices="tripinfo_SN_39" vType="car" speedFactor="0.88" vaporized=""/>
    <tripinfo id="WE_60" depart="60.00" departLane="1i_0" departPos="4.10" departSpeed="0.00" departDelay="0.00" arrival="157.00" arrivalLane="3o_0" arrivalPos="492.80" arrivalSpeed="9.16" duration="97.00" routeLength="990.53" waitingTime="1.00" waitingCount="1" stopTime="0.00" timeLoss="16.02" rerouteNo="0" devices="tripinfo_WE_60" vType="car" speedFactor="0.87" vaporized=""/>
    <tripinfo id="NS_57" depart="57.00" departLane="2i_0" departPos="4.10" departSpeed="0.00" departDelay="0.00" arrival="159.00" arrivalLane="3o_0" arrivalPos="492.80" arrivalSpeed="9.09" duration="102.00" routeLength="995.70" waitingTime="7.00" waitingCount="2" stopTime="0.00" timeLoss="22.09" rerouteNo="0" devices="tripinfo_NS_57" vType="car" speedFactor="0.89" vaporized=""/>
    <tripinfo id="WE_70" depart="70.00" departLane="1i_0" departPos="4.10" departSpeed="0.00" departDelay="0.00" arrival="159.00" arrivalLane="4o_0" arrivalPos="492.80" arrivalSpeed="12.34" duration="89.00" routeLength="995.70" waitingTime="3.00" waitingCount="1" stopTime="0.00" timeLoss="29.07" rerouteNo="0" devices="tripinfo_WE_70" vType="car" speedFactor="1.18" vaporized=""/>
    <tripinfo id="EW_80" depart="80.00" departLane="4i_0" departPos="4.10" departSpeed="0.00" departDelay="0.00" arrival="160.00" arrivalLane="1o_0" arrivalPos="492.80" arrivalSpeed="10.51" duration="80.00" routeLength="990.53" waitingTime="0.00" waitingCount="0" stopTime="0.00" timeLoss="7.45" rerouteNo="0" devices="tripinfo_EW_80" vType="car" speedFactor="0.97" vaporized=""/>
    <tripinfo id="WE_62" depart="63.00" departLane="1i_0" departPos="4.10" departSpeed="0.00" departDelay="1.00" arrival="162.00" arrivalLane="3o_0" arrivalPos="492.80" arrivalSpeed="9.80" duration="99.00" routeLength="990.53" waitingTime="5.00" waitingCount="3" stopTime="0.00" timeLoss="22.48" rerouteNo="0" devices="tripinfo_WE_62" vType="car" speedFactor="0.92" vaporized=""/>
    <tripinfo id="NS_62" depart="62.00" departLane="2i_0" departPos="4.10" departSpeed="0.00" departDelay="0.00" arrival="164.00" arrivalLane="3o_0" arrivalPos="492.80" arrivalSpeed="11.93" duration="102.00" routeLength="995.70" waitingTime="7.00" waitingCount="3" stopTime="0.00" timeLoss="39.33" rerouteNo="0" devices="tripinfo_NS_62" vType="car" speedFactor="1.13" vaporized=""/>
    <tripinfo id="NS_73" depart="73.00" departLane="2i_0" departPos="4.10" departSpeed="0.00" departDelay="0.00" arrival="166.00" arrivalLane="3o_0" arrivalPos="492.80" arrivalSpeed="12.77" duration="93.00" routeLength="995.70" waitingTime="4.00" waitingCount="4" stopTime="0.00" timeLoss="31.19" rerouteNo="0" devices="tripinfo_NS_73" vType="car" speedFactor="1.15" vaporized=""/>
    <tripinfo id="SN_62" depart="62.00" departLane="3i_0" departPos="4.10" departSpeed="0.00" departDelay="0.00" arrival="167.00" arrivalLane="1o_0" arrivalPos="492.80" arrivalSpeed="9.26" duration="105.00" routeLength="995.70" waitingTime="7.00" waitingCount="2" stopTime="0.00" timeLoss="29.03" rerouteNo="0" devices="tripinfo_SN_62" vType="car" speedFactor="0.93" vaporized=""/>
    <tripinfo id="SN_73" depart="73.00" departLane="3i_0" departPos="4.10" departSpeed="0.00" departDelay="0.00" arrival="169.00" arrivalLane="4o_0" arrivalPos="492.80" arrivalSpeed="10.25" duration="96.00" routeLength="995.90" waitingTime="2.00" waitingCount="1" stopTime="0.00" timeLoss="25.33" rerouteNo="0" devices="tripinfo_SN_73" vType="car" speedFactor="1.01" vaporized=""/>
    <tripinfo id="EW_85" depart="87.00" departLane="4i_0" departPos="10.10" departSpeed="0.00" departDelay="2.00" arrival="170.00" arrivalLane="3o_0" arrivalPos="492.80" arrivalSpeed="10.93" duration="83.00" routeLength="989.90" waitingTime="0.00" waitingCount="0" stopTime="0.00" timeLoss="13.55" rerouteNo="0" devices="tripinfo_EW_85" vType="truck" speedFactor="1.02" vaporized=""/>
    <tripinfo id="EW_96" depart="96.00" departLane="4i_0" departPos="4.10" departSpeed="0.00" departDelay="0.00" arrival="173.00" arrivalLane="1o_0" arrivalPos="492.80" arrivalSpeed="10.55" duration="77.00" routeLength="990.53" waitingTime="0.00" waitingCount="0" stopTime="0.00" timeLoss="8.88" rerouteNo="0" devices="tripinfo_EW_96" vType="car" speedFactor="1.04" vaporized=""/>
    <tripinfo id="NS_75" depart="77.00" departLane="2i_0" departPos="10.10" departSpeed="0.00" departDelay="2.00" arrival="174.00" arrivalLane="4o_0" arrivalPos="492.80" arrivalSpeed="10.91" duration="97.00" routeLength="984.53" waitingTime="2.00" waitingCount="2" stopTime="0.00" timeLoss="26.56" rerouteNo="0" devices="tripinfo_NS_75" vType="truck" speedFactor="1.00" vaporized=""/>
    <tripinfo id="WE_74" depart="74.00" departLane="1i_0" departPos="4.10" departSpeed="0.00" departDelay="0.00" arrival="176.00" arrivalLane="4o_0" arrivalPos="492.80" arrivalSpeed="12.76" duration="102.00" routeLength="995.70" waitingTime="7.00" waitingCount="2" stopTime="0.00" timeLoss="41.62" rerouteNo="0" devices="tripinfo_WE_74" vType="car" speedFactor="1.17" vaporized=""/>
    <tripinfo id="SN_82" depart="85.00" departLane="3i_0" departPos="4.10" departSpeed="0.00" departDelay="3.00" arrival="179.00" arrivalLane="1o_0" arrivalPos="492.80" arrivalSpeed="11.24" duration="94.00" routeLength="995.70" waitingTime="3.00" waitingCount="2" stopTime="0.00" timeLoss="29.67" rerouteNo="0" devices="tripinfo_SN_82" vType="car" speedFactor="1.10" vaporized=""/>
    <tripinfo id="SN_79" depart="79.00" departLane="3i_0" departPos="4.10" departSpeed="0.00" departDelay="0.00" arrival="180.00" arrivalLane="4o_0" arrivalPos="492.80" arrivalSpeed="10.28" duration="101.00" routeLength="995.90" waitingTime="6.00" waitingCount="3" stopTime="0.00" timeLoss="31.03" rerouteNo="0" devices="tripinfo_SN_79" vType="car" speedFactor="1.02" vaporized=""/>
    <tripinfo id="SN_80" depart="83.00" departLane="3i_0" departPos="4.10" departSpeed="0.00" departDelay="3.00" arrival="181.00" arrivalLane="4o_0" arrivalPos="492.80" arrivalSpeed="12.85" duration="98.00" routeLength="995.90" waitingTime="2.00" waitingCount="1" stopTime="0.00" timeLoss="37.92" rerouteNo="0" devices="tripinfo_SN_80" vType="car" speedFactor="1.18" vaporized=""/>
    <tripinfo id="SN_101" depart="101.00" departLane="3i_0" departPos="4.10" departSpeed="0.00" departDelay="0.00" arrival="182.00" arrivalLane="2o_0" arrivalPos="492.80" arrivalSpeed="11.69" duration="81.00" routeLength="990.53" waitingTime="0.00" waitingCount="0" stopTime="0.00" timeLoss="15.78" rerouteNo="0" devices="tripinfo_SN_101" vType="car" speedFactor="1.09" vaporized=""/>
    <tripinfo id="SN_103" depart="104.00" departLane="3i_0" departPos="4.10" departSpeed="0.00" departDelay="1.00" arrival="189.00" arrivalLane="1o_0" arrivalPos="492.80" arrivalSpeed="10.46" duration="85.00" routeLength="995.70" waitingTime="0.00" waitingCount="0" stopTime="0.00" timeLoss="14.19" rerouteNo="0" devices="tripinfo_SN_103" vType="car" speedFactor="1.00" vaporized=""/>
    <tripinfo id="WE_84" depart="84.00" departLane="1i_0" departPos="4.10" departSpeed="0.00" departDelay="0.00" arrival="192.00" arrivalLane="3o_0" arrivalPos="492.80" arrivalSpeed="8.73" duration="108.00" routeLength="990.53" waitingTime="9.00" waitingCount="2" stopTime="0.00" timeLoss="29.42" rerouteNo="0" devices="tripinfo_WE_84" vType="car" speedFactor="0.90" vaporized=""/>
    <tripinfo id="WE_95" depart="95.00" departLane="1i_0" departPos="4.10" departSpeed="0.00" departDelay="0.00" arrival="194.00" arrivalLane="3o_0" arrivalPos="492.80" arrivalSpeed="12.04" duration="99.00" routeLength="990.53" waitingTime="8.00" waitingCount="3" stopTime="0.00" timeLoss="33.84" rerouteNo="0" devices="tripinfo_WE_95" vType="car" speedFactor="1.09" vaporized=""/>
    <tripinfo id="WE_86" depart="87.00" departLane="1i_0" departPos="4.10" departSpeed="0.00" departDelay="1.00" arrival="195.00" arrivalLane="2o_0" arrivalPos="492.80" arrivalSpeed="10.32" duration="108.00" routeLength="995.90" waitingTime="9.00" waitingCount="3" stopTime="0.00" timeLoss="33.89" rerouteNo="0" devices="tripinfo_WE_86" vType="car" speedFactor="0.96" vaporized=""/>
    <tripinfo id="WE_100" depart="100.00" departLane="1i_0" departPos="4.10" departSpeed="0.00" departDelay="0.00" arrival="196.00" arrivalLane="4o_0" arrivalPos="492.80" arrivalSpeed="10.86" duration="96.00" routeLength="995.70" waitingTime="4.00" waitingCount="1" stopTime="0.00" timeLoss="27.57" rerouteNo="0" devices="tripinfo_WE_100" vType="car" speedFactor="1.04" vaporized=""/>
    <tripinfo id="SN_108" depart="108.00" departLane="3i_0" departPos="4.10" departSpeed="0.00" departDelay="0.00" arrival="202.00" arrivalLane="1o_0" arrivalPos="492.80" arrivalSpeed="9.56" duration="94.00" routeLength="995.70" waitingTime="0.00" waitingCount="0" stopTime="0.00" timeLoss="14.78" rerouteNo="0" devices="tripinfo_SN_108" vType="car" speedFactor="0.90" vaporized=""/>
    <tripinfo id="EW_124" depart="124.00" departLane="4i_0" departPos="4.10" departSpeed="0.00" departDelay="0.00" arrival="203.00" arrivalLane="1o_0" arrivalPos="492.80" arrivalSpeed="10.67" duration="79.00" routeLength="990.53" waitingTime="0.00" waitingCount="0" stopTime="0.00" timeLoss="18.80" rerouteNo="0" devices="tripinfo_EW_124" vType="car" speedFactor="1.17" vaporized=""/>
    <tripinfo id="WE_113" depart="113.00" departLane="1i_0" departPos="4.10" departSpeed="0.00" departDelay="0.00" arrival="213.00" arrivalLane="3o_0" arrivalPos="492.80" arrivalSpeed="9.24" duration="100.00" routeLength="990.53" waitingTime="4.00" waitingCount="1" stopTime="0.00" timeLoss="19.44" rerouteNo="0" devices="tripinfo_WE_113" vType="car" speedFactor="0.88" vaporized=""/>
    <tripinfo id="SN_129" depart="129.00" departLane="3i_0" departPos="10.10" departSpeed="0.00" departDelay="0.00" arrival="213.00" arrivalLane="1o_0" arrivalPos="492.80" arrivalSpeed="11.53" duration="84.00" routeLength="989.70" waitingTime="0.00" waitingCount="0" stopTime="0.00" timeLoss="16.07" rerouteNo="0" devices="tripinfo_SN_129" vType="truck" speedFactor="1.05" vaporized=""/>
    <tripinfo id="WE_130" depart="130.00" departLane="1i_0" departPos="4.10" departSpeed="0.00" departDelay="0.00" arrival="216.00" arrivalLane="3o_0" arrivalPos="492.80" arrivalSpeed="10.50" duration="86.00" routeLength="990.53" waitingTime="0.00" waitingCount="0" stopTime="0.00" timeLoss="15.36" rerouteNo="0" devices="tripinfo_WE_130" vType="car" speedFactor="1.00" vaporized=""/>
    <tripinfo id="WE_117" depart="117.00" departLane="1i_0" departPos="4.10" departSpeed="0.00" departDelay="0.00" arrival="222.00" arrivalLane="4o_0" arrivalPos="492.80" arrivalSpeed="8.71" duration="105.00" routeLength="995.70" waitingTime="3.00" waitingCount="2" stopTime="0.00" timeLoss="21.88" rerouteNo="0" devices="tripinfo_WE_117" vType="car" speedFactor="0.85" vaporized=""/>
    <tripinfo id="NS_119" depart="121.00" departLane="2i_0" departPos="10.10" departSpeed="0.00" departDelay="2.00" arrival="225.00" arrivalLane="4o_0" arrivalPos="492.80" arrivalSpeed="9.72" duration="104.00" routeLength="984.53" waitingTime="3.00" waitingCount="3" stopTime="0.00" timeLoss="28.03" rerouteNo="0" devices="tripinfo_NS_119" vType="truck" speedFactor="0.93" vaporized=""/>
    <tripinfo id="NS_124" depart="125.00" departLane="2i_0" departPos="4.10" departSpeed="0.00" departDelay="1.00" arrival="225.00" arrivalLane="3o_0" arrivalPos="492.80" arrivalSpeed="10.22" duration="100.00" routeLength="995.70" waitingTime="4.00" waitingCount="4" stopTime="0.00" timeLoss="30.51" rerouteNo="0" devices="tripinfo_NS_124" vType="car" speedFactor="1.02" vaporized=""/>
    <tripinfo id="SN_147" depart="147.00" departLane="3i_0" departPos="4.10" departSpeed="0.00" departDelay="0.00" arrival="225.00" arrivalLane="2o_0" arrivalPos="492.80" arrivalSpeed="10.55" duration="78.00" routeLength="990.53" waitingTime="0.00" waitingCount="0" stopTime="0.00" timeLoss="8.67" rerouteNo="0" devices="tripinfo_SN_147" vType="car" speedFactor="1.02" vaporized=""/>
    <tripinfo id="NS_140" depart="140.00" departLane="2i_0" departPos="4.10" departSpeed="0.00" departDelay="0.00" arrival="233.00" arrivalLane="4o_0" arrivalPos="492.80" arrivalSpeed="9.77" duration="93.00" routeLength="990.53" waitingTime="1.00" waitingCount="1" stopTime="0.00" timeLoss="22.07" rerouteNo="0" devices="tripinfo_NS_140" vType="car" speedFactor="1.00" vaporized=""/>
    <tripinfo id="WE_150" depart="150.00" departLane="1i_0" departPos="4.10" departSpeed="0.00" departDelay="0.00" arrival="233.00" arrivalLane="2o_0" arrivalPos="492.80" arrivalSpeed="9.88" duration="83.00" routeLength="995.90" waitingTime="0.00" waitingCount="0" stopTime="0.00" timeLoss="9.71" rerouteNo="0" devices="tripinfo_WE_150" vType="car" speedFactor="0.97" vaporized=""/>
    <tripinfo id="EW_157" depart="157.00" departLane="4i_0" departPos="4.10" departSpeed="0.00" departDelay="0.00" arrival="235.00" arrivalLane="2o_0" arrivalPos="492.80" arrivalSpeed="11.99" duration="78.00" routeLength="995.70" waitingTime="0.00" waitingCount="0" stopTime="0.00" timeLoss="14.10" rerouteNo="0" devices="tripinfo_EW_157" vType="car" speedFactor="1.12" vaporized=""/>
    <tripinfo id="WE_158" depart="158.00" departLane="1i_0" departPos="4.10" departSpeed="0.00" departDelay="0.00" arrival="242.00" arrivalLane="3o_0" arrivalPos="492.80" arrivalSpeed="11.28" duration="84.00" routeLength="990.53" waitingTime="3.00" waitingCount="1" stopTime="0.00" timeLoss="13.91" rerouteNo="0" devices="tripinfo_WE_158" vType="car" speedFactor="1.02" vaporized=""/>
    <tripinfo id="NS_144" depart="144.00" departLane="2i_0" departPos="4.10" departSpeed="0.00" departDelay="0.00" arrival="243.00" arrivalLane="4o_0" arrivalPos="492.80" arrivalSpeed="9.08" duration="99.00" routeLength="990.53" waitingTime="1.00" waitingCount="1" stopTime="0.00" timeLoss="20.90" rerouteNo="0" devices="tripinfo_NS_144" vType="car" speedFactor="0.90" vaporized=""/>
    <tripinfo id="NS_146" depart="146.00" departLane="2i_0" departPos="4.10" departSpeed="0.00" departDelay="0.00" arrival="243.00" arrivalLane="3o_0" arrivalPos="492.80" arrivalSpeed="12.13" duration="97.00" routeLength="995.70" waitingTime="0.00" waitingCount="0" stopTime="0.00" timeLoss="35.02" rerouteNo="0" devices="tripinfo_NS_146" vType="car" speedFactor="1.14" vaporized=""/>
    <tripinfo id="NS_155" depart="155.00" departLane="2i_0" departPos="4.10" departSpeed="0.00" departDelay="0.00" arrival="246.00" arrivalLane="3o_0" arrivalPos="492.80" arrivalSpeed="11.22" duration="91.00" routeLength="995.70" waitingTime="1.00" waitingCount="1" stopTime="0.00" timeLoss="25.12" rerouteNo="0" devices="tripinfo_NS_155" vType="car" speedFactor="1.08" vaporized=""/>
    <tripinfo id="WE_159" depart="161.00" departLane="1i_0" departPos="4.10" departSpeed="0.00" departDelay="2.00" arrival="251.00" arrivalLane="4o_0" arrivalPos="492.80" arrivalSpeed="10.48" duration="90.00" routeLength="995.70" waitingTime="2.00" waitingCount="1" stopTime="0.00" timeLoss="17.75" rerouteNo="0" devices="tripinfo_WE_159" vType="car" speedFactor="0.99" vaporized=""/>
    <tripinfo id="SN_163" depart="166.00" departLane="3i_0" departPos="4.10" departSpeed="0.00" departDelay="3.00" arrival="253.00" arrivalLane="2o_0" arrivalPos="492.80" arrivalSpeed="10.26" duration="87.00" routeLength="990.53" waitingTime="1.00" waitingCount="1" stopTime="0.00" timeLoss="11.06" rerouteNo="0" devices="tripinfo_SN_163" vType="car" speedFactor="0.94" vaporized=""/>
    <tripinfo id="EW_173" depart="174.00" departLane="4i_0" departPos="4.10" departSpeed="0.00" departDelay="1.00" arrival="255.00" arrivalLane="2o_0" arrivalPos="492.80" arrivalSpeed="10.27" duration="81.00" routeLength="995.70" waitingTime="0.00" waitingCount="0" stopTime="0.00" timeLoss="11.18" rerouteNo="0" devices="tripinfo_EW_173" vType="car" speedFactor="1.02" vaporized=""/>
    <tripinfo id="NS_171" depart="171.00" departLane="2i_0" departPos="4.10" departSpeed="0.00" departDelay="0.00" arrival="259.00" arrivalLane="3o_0" arrivalPos="492.80" arrivalSpeed="10.99" duration="88.00" routeLength="995.70" waitingTime="3.00" waitingCount="2" stopTime="0.00" timeLoss="20.07" rerouteNo="0" devices="tripinfo_NS_171" vType="car" speedFactor="1.04" vaporized=""/>
    <tripinfo id="SN_165" depart="170.00" departLane="3i_0" departPos="4.10" departSpeed="0.00" departDelay="5.00" arrival="265.00" arrivalLane="1o_0" arrivalPos="492.80" arrivalSpeed="8.62" duration="95.00" routeLength="995.70" waitingTime="0.00" waitingCount="0" stopTime="0.00" timeLoss="14.26" rerouteNo="0" devices="tripinfo_SN_165" vType="car" speedFactor="0.88" vaporized=""/>
    <tripinfo id="SN_170" depart="173.00" departLane="3i_0" departPos="4.10" departSpeed="0.00" departDelay="3.00" arrival="266.00" arrivalLane="1o_0" arrivalPos="492.80" arrivalSpeed="9.63" duration="93.00" routeLength="995.70" waitingTime="0.00" waitingCount="0" stopTime="0.00" timeLoss="15.86" rerouteNo="0" devices="tripinfo_SN_170" vType="car" speedFactor="0.91" vaporized=""/>
    <tripinfo id="EW_181" depart="181.00" departLane="4i_0" departPos="10.10" departSpeed="0.00" departDelay="0.00" arrival="269.00" arrivalLane="1o_0" arrivalPos="492.80" arrivalSpeed="11.23" duration="88.00" routeLength="984.53" waitingTime="0.00" waitingCount="0" stopTime="0.00" timeLoss="19.46" rerouteNo="0" devices="tripinfo_EW_181" vType="truck" speedFactor="1.03" vaporized=""/>
    <tripinfo id="EW_191" depart="191.00" departLane="4i_0" departPos="4.10" departSpeed="0.00" departDelay="0.00" arrival="269.00" arrivalLane="3o_0" arrivalPos="492.80" arrivalSpeed="10.19" duration="78.00" routeLength="995.90" waitingTime="0.00" waitingCount="0" stopTime="0.00" timeLoss="8.77" rerouteNo="0" devices="tripinfo_EW_191" vType="car" speedFactor="1.03" vaporized=""/>
    <tripinfo id="WE_167" depart="167.00" departLane="1i_0" departPos="4.10" departSpeed="0.00" departDelay="0.00" arrival="270.00" arrivalLane="2o_0" arrivalPos="492.80" arrivalSpeed="9.40" duration="103.00" routeLength="995.90" waitingTime="7.00" waitingCount="2" stopTime="0.00" timeLoss="24.46" rerouteNo="0" devices="tripinfo_WE_167" vType="car" speedFactor="0.91" vaporized=""/>
    <tripinfo id="WE_180" depart="180.00" departLane="1i_0" departPos="4.10" departSpeed="0.00" departDelay="0.00" arrival="275.00" arrivalLane="4o_0" arrivalPos="492.80" arrivalSpeed="10.20" duration="95.00" routeLength="995.70" waitingTime="3.00" waitingCount="2" stopTime="0.00" timeLoss="22.39" rerouteNo="0" devices="tripinfo_WE_180" vType="car" speedFactor="0.97" vaporized=""/>
    <tripinfo id="SN_177" depart="177.00" departLane="3i_0" departPos="4.10" departSpeed="0.00" departDelay="0.00" arrival="276.00" arrivalLane="1o_0" arrivalPos="492.80" arrivalSpeed="10.08" duration="99.00" routeLength="995.70" waitingTime="11.00" waitingCount="1" stopTime="0.00" timeLoss="29.39" rerouteNo="0" devices="tripinfo_SN_177" vType="car" speedFactor="1.02" vaporized=""/>
    <tripinfo id="NS_184" depart="184.00" departLane="2i_0" departPos="4.10" departSpeed="0.00" departDelay="0.00" arrival="281.00" arrivalLane="1o_0" arrivalPos="492.80" arrivalSpeed="10.00" duration="97.00" routeLength="995.90" waitingTime="6.00" waitingCount="4" stopTime="0.00" timeLoss="23.03" rerouteNo="0" devices="tripinfo_NS_184" vType="car" speedFactor="0.96" vaporized=""/>
    <tripinfo id="SN_180" depart="180.00" departLane="3i_0" departPos="4.10" departSpeed="0.00" departDelay="0.00" arrival="285.00" arrivalLane="2o_0" arrivalPos="492.80" arrivalSpeed="10.24" duration="105.00" routeLength="990.53" waitingTime="14.00" waitingCount="2" stopTime="0.00" timeLoss="29.72" rerouteNo="0" devices="tripinfo_SN_180" vType="car" speedFactor="0.94" vaporized=""/>