<?xml version="1.0" encoding="UTF-8"?>

<!-- generated on 2024-05-04 19:14:51 by Eclipse SUMO sumo Version 1.19.0
<configuration xmlns:xsi="http://www.w3.org/2001/XMLSchema-instance" xsi:noNamespaceSchemaLocation="http://sumo.dlr.de/xsd/sumoConfiguration.xsd">

    <input>
        <net-file value="test5.net.xml"/>
        <route-files value="route_gen.rou.xml"/>
    </input>

    <output>
        <tripinfo-output value="tripinfo_epi533.xml"/>
    </output>

    <report>
        <no-warnings value="true"/>
    </report>

    <traci_server>
        <remote-port value="44061"/>
    </traci_server>

</configuration>
-->

<tripinfos xmlns:xsi="http://www.w3.org/2001/XMLSchema-instance" xsi:noNamespaceSchemaLocation="http://sumo.dlr.de/xsd/tripinfo_file.xsd">
    <tripinfo id="SN_0" depart="0.00" departLane="3i_0" departPos="4.10" departSpeed="0.00" departDelay="0.00" arrival="82.00" arrivalLane="2o_0" arrivalPos="492.80" arrivalSpeed="10.24" duration="82.00" routeLength="990.53" waitingTime="0.00" waitingCount="0" stopTime="0.00" timeLoss="7.12" rerouteNo="0" devices="tripinfo_SN_0" vType="car" speedFactor="0.94" vaporized=""/>
    <tripinfo id="NS_4" depart="4.00" departLane="2i_0" departPos="4.10" departSpeed="0.00" departDelay="0.00" arrival="86.00" arrivalLane="1o_0" arrivalPos="492.80" arrivalSpeed="11.09" duration="82.00" routeLength="995.90" waitingTime="0.00" waitingCount="0" stopTime="0.00" timeLoss="11.98" rerouteNo="0" devices="tripinfo_NS_4" vType="car" speedFactor="1.01" vaporized=""/>
    <tripinfo id="WE_0" depart="0.00" departLane="1i_0" departPos="4.10" departSpeed="0.00" departDelay="0.00" arrival="87.00" arrivalLane="4o_0" arrivalPos="492.80" arrivalSpeed="11.64" duration="87.00" routeLength="995.70" waitingTime="5.00" waitingCount="2" stopTime="0.00" timeLoss="20.20" rerouteNo="0" devices="tripinfo_WE_0" vType="car" speedFactor="1.06" vaporized=""/>
    <tripinfo id="SN_12" depart="12.00" departLane="3i_0" departPos="4.10" departSpeed="0.00" departDelay="0.00" arrival="88.00" arrivalLane="2o_0" arrivalPos="492.80" arrivalSpeed="10.51" duration="76.00" routeLength="990.53" waitingTime="0.00" waitingCount="0" stopTime="0.00" timeLoss="8.21" rerouteNo="0" devices="tripinfo_SN_12" vType="car" speedFactor="1.05" vaporized=""/>
    <tripinfo id="WE_5" depart="5.00" departLane="1i_0" departPos="4.10" departSpeed="0.00" departDelay="0.00" arrival="96.00" arrivalLane="2o_0" arrivalPos="492.80" arrivalSpeed="11.75" duration="91.00" routeLength="995.90" waitingTime="9.00" waitingCount="3" stopTime="0.00" timeLoss="25.79" rerouteNo="0" devices="tripinfo_WE_5" vType="car" speedFactor="1.08" vaporized=""/>
    <tripinfo id="WE_10" depart="10.00" departLane="1i_0" departPos="4.10" departSpeed="0.00" departDelay="0.00" arrival="103.00" arrivalLane="3o_0" arrivalPos="492.80" arrivalSpeed="10.85" duration="93.00" routeLength="990.53" waitingTime="7.00" waitingCount="1" stopTime="0.00" timeLoss="24.64" rerouteNo="0" devices="tripinfo_WE_10" vType="car" speedFactor="1.03" vaporized=""/>
    <tripinfo id="SN_21" depart="21.00" departLane="3i_0" departPos="4.10" departSpeed="0.00" departDelay="0.00" arrival="104.00" arrivalLane="1o_0" arrivalPos="492.80" arrivalSpeed="10.46" duration="83.00" routeLength="995.70" waitingTime="2.00" waitingCount="1" stopTime="0.00" timeLoss="14.74" rerouteNo="0" devices="tripinfo_SN_21" vType="car" speedFactor="1.05" vaporized=""/>
    <tripinfo id="NS_19" depart="19.00" departLane="2i_0" departPos="4.10" departSpeed="0.00" departDelay="0.00" arrival="105.00" arrivalLane="1o_0" arrivalPos="492.80" arrivalSpeed="11.03" duration="86.00" routeLength="995.90" waitingTime="2.00" waitingCount="2" stopTime="0.00" timeLoss="21.15" rerouteNo="0" devices="tripinfo_NS_19" vType="car" speedFactor="1.09" vaporized=""/>
    <tripinfo id="SN_35" depart="35.00" departLane="3i_0" departPos="4.10" departSpeed="0.00" departDelay="0.00" arrival="107.00" arrivalLane="2o_0" arrivalPos="492.80" arrivalSpeed="12.45" duration="72.00" routeLength="990.53" waitingTime="0.00" waitingCount="0" stopTime="0.00" timeLoss="11.21" rerouteNo="0" devices="tripinfo_SN_35" vType="car" speedFactor="1.16" vaporized=""/>
    <tripinfo id="NS_11" depart="11.00" departLane="2i_0" departPos="4.10" departSpeed="0.00" departDelay="0.00" arrival="110.00" arrivalLane="4o_0" arrivalPos="492.80" arrivalSpeed="9.21" duration="99.00" routeLength="990.53" waitingTime="0.00" waitingCount="0" stopTime="0.00" timeLoss="13.86" rerouteNo="0" devices="tripinfo_NS_11" vType="car" speedFactor="0.83" vaporized=""/>
    <tripinfo id="SN_31" depart="31.00" departLane="3i_0" departPos="4.10" departSpeed="0.00" departDelay="0.00" arrival="116.00" arrivalLane="1o_0" arrivalPos="492.80" arrivalSpeed="9.58" duration="85.00" routeLength="995.70" waitingTime="0.00" waitingCount="0" stopTime="0.00" timeLoss="9.46" rerouteNo="0" devices="tripinfo_SN_31" vType="car" speedFactor="0.94" vaporized=""/>
    <tripinfo id="WE_13" depart="13.00" departLane="1i_0" departPos="4.10" departSpeed="0.00" departDelay="0.00" arrival="119.00" arrivalLane="3o_0" arrivalPos="492.80" arrivalSpeed="9.52" duration="106.00" routeLength="990.53" waitingTime="7.00" waitingCount="2" stopTime="0.00" timeLoss="26.23" rerouteNo="0" devices="tripinfo_WE_13" vType="car" speedFactor="0.89" vaporized=""/>
    <tripinfo id="NS_25" depart="26.00" departLane="2i_0" departPos="4.10" departSpeed="0.00" departDelay="1.00" arrival="120.00" arrivalLane="4o_0" arrivalPos="492.80" arrivalSpeed="10.17" duration="94.00" routeLength="990.53" waitingTime="2.00" waitingCount="2" stopTime="0.00" timeLoss="22.94" rerouteNo="0" devices="tripinfo_NS_25" vType="car" speedFactor="0.99" vaporized=""/>
    <tripinfo id="EW_52" depart="52.00" departLane="4i_0" departPos="4.10" departSpeed="0.00" departDelay="0.00" arrival="120.00" arrivalLane="1o_0" arrivalPos="492.80" arrivalSpeed="13.02" duration="68.00" routeLength="990.53" waitingTime="0.00" waitingCount="0" stopTime="0.00" timeLoss="7.94" rerouteNo="0" devices="tripinfo_EW_52" vType="car" speedFactor="1.18" vaporized=""/>
    <tripinfo id="NS_23" depart="23.00" departLane="2i_0" departPos="4.10" departSpeed="0.00" departDelay="0.00" arrival="121.00" arrivalLane="3o_0" arrivalPos="492.80" arrivalSpeed="11.75" duration="98.00" routeLength="995.70" waitingTime="3.00" waitingCount="2" stopTime="0.00" timeLoss="34.28" rerouteNo="0" devices="tripinfo_NS_23" vType="car" speedFactor="1.12" vaporized=""/>
    <tripinfo id="SN_38" depart="38.00" departLane="3i_0" departPos="4.10" departSpeed="0.00" departDelay="0.00" arrival="122.00" arrivalLane="2o_0" arrivalPos="492.80" arrivalSpeed="9.83" duration="84.00" routeLength="990.53" waitingTime="1.00" waitingCount="1" stopTime="0.00" timeLoss="11.32" rerouteNo="0" devices="tripinfo_SN_38" vType="car" speedFactor="0.97" vaporized=""/>
    <tripinfo id="WE_15" depart="16.00" departLane="1i_0" departPos="4.10" departSpeed="0.00" departDelay="1.00" arrival="127.00" arrivalLane="4o_0" arrivalPos="492.80" arrivalSpeed="10.39" duration="111.00" routeLength="995.70" waitingTime="7.00" waitingCount="4" stopTime="0.00" timeLoss="34.94" rerouteNo="0" devices="tripinfo_WE_15" vType="car" speedFactor="0.94" vaporized=""/>
    <tripinfo id="WE_20" depart="22.00" departLane="1i_0" departPos="4.10" departSpeed="0.00" departDelay="2.00" arrival="128.00" arrivalLane="4o_0" arrivalPos="492.80" arrivalSpeed="10.64" duration="106.00" routeLength="995.70" waitingTime="3.00" waitingCount="2" stopTime="0.00" timeLoss="37.28" rerouteNo="0" devices="tripinfo_WE_20" vType="car" speedFactor="1.03" vaporized=""/>
    <tripinfo id="SN_61" depart="61.00" departLane="3i_0" departPos="4.10" departSpeed="0.00" departDelay="0.00" arrival="130.00" arrivalLane="2o_0" arrivalPos="492.80" arrivalSpeed="12.25" duration="69.00" routeLength="990.53" waitingTime="0.00" waitingCount="0" stopTime="0.00" timeLoss="8.47" rerouteNo="0" devices="tripinfo_SN_61" vType="car" speedFactor="1.18" vaporized=""/>
    <tripinfo id="WE_18" depart="19.00" departLane="1i_0" departPos="4.10" departSpeed="0.00" departDelay="1.00" arrival="133.00" arrivalLane="3o_0" arrivalPos="492.80" arrivalSpeed="8.63" duration="114.00" routeLength="990.53" waitingTime="6.00" waitingCount="3" stopTime="0.00" timeLoss="31.34" rerouteNo="0" devices="tripinfo_WE_18" vType="car" speedFactor="0.86" vaporized=""/>
    <tripinfo id="NS_36" depart="36.00" departLane="2i_0" departPos="4.10" departSpeed="0.00" departDelay="0.00" arrival="134.00" arrivalLane="3o_0" arrivalPos="492.80" arrivalSpeed="10.37" duration="98.00" routeLength="995.70" waitingTime="1.00" waitingCount="1" stopTime="0.00" timeLoss="28.75" rerouteNo="0" devices="tripinfo_NS_36" vType="car" speedFactor="1.02" vaporized=""/>
    <tripinfo id="WE_26" depart="26.00" departLane="1i_0" departPos="4.10" departSpeed="0.00" departDelay="0.00" arrival="137.00" arrivalLane="3o_0" arrivalPos="492.80" arrivalSpeed="9.52" duration="111.00" routeLength="990.53" waitingTime="1.00" waitingCount="1" stopTime="0.00" timeLoss="34.52" rerouteNo="0" devices="tripinfo_WE_26" vType="car" speedFactor="0.93" vaporized=""/>
    <tripinfo id="SN_42" depart="42.00" departLane="3i_0" departPos="4.10" departSpeed="0.00" departDelay="0.00" arrival="143.00" arrivalLane="1o_0" arrivalPos="492.80" arrivalSpeed="8.28" duration="101.00" routeLength="995.70" waitingTime="2.00" waitingCount="1" stopTime="0.00" timeLoss="14.83" rerouteNo="0" devices="tripinfo_SN_42" vType="car" speedFactor="0.83" vaporized=""/>
    <tripinfo id="NS_50" depart="52.00" departLane="2i_0" departPos="4.10" departSpeed="0.00" departDelay="2.00" arrival="143.00" arrivalLane="4o_0" arrivalPos="492.80" arrivalSpeed="10.45" duration="91.00" routeLength="990.53" waitingTime="1.00" waitingCount="1" stopTime="0.00" timeLoss="16.28" rerouteNo="0" devices="tripinfo_NS_50" vType="car" speedFactor="0.95" vaporized=""/>
    <tripinfo id="NS_49" depart="49.00" departLane="2i_0" departPos="4.10" departSpeed="0.00" departDelay="0.00" arrival="145.00" arrivalLane="1o_0" arrivalPos="492.80" arrivalSpeed="9.16" duration="96.00" routeLength="995.90" waitingTime="1.00" waitingCount="1" stopTime="0.00" timeLoss="18.30" rerouteNo="0" devices="tripinfo_NS_49" vType="car" speedFactor="0.92" vaporized=""/>
    <tripinfo id="EW_60" depart="60.00" departLane="4i_0" departPos="4.10" departSpeed="0.00" departDelay="0.00" arrival="146.00" arrivalLane="1o_0" arrivalPos="492.80" arrivalSpeed="10.35" duration="86.00" routeLength="990.53" waitingTime="0.00" waitingCount="0" stopTime="0.00" timeLoss="16.98" rerouteNo="0" devices="tripinfo_EW_60" vType="car" speedFactor="1.02" vaporized=""/>
    <tripinfo id="WE_31" depart="31.00" departLane="1i_0" departPos="4.10" departSpeed="0.00" departDelay="0.00" arrival="147.00" arrivalLane="2o_0" arrivalPos="492.80" arrivalSpeed="9.60" duration="116.00" routeLength="995.90" waitingTime="3.00" waitingCount="2" stopTime="0.00" timeLoss="35.55" rerouteNo="0" devices="tripinfo_WE_31" vType="car" speedFactor="0.88" vaporized=""/>
    <tripinfo id="NS_52" depart="55.00" departLane="2i_0" departPos="4.10" departSpeed="0.00" departDelay="3.00" arrival="148.00" arrivalLane="1o_0" arrivalPos="492.80" arrivalSpeed="11.60" duration="93.00" routeLength="995.90" waitingTime="1.00" waitingCount="1" stopTime="0.00" timeLoss="31.57" rerouteNo="0" devices="tripinfo_NS_52" vType="car" speedFactor="1.15" vaporized=""/>
    <tripinfo id="NS_62" depart="62.00" departLane="2i_0" departPos="4.10" departSpeed="0.00" departDelay="0.00" arrival="148.00" arrivalLane="4o_0" arrivalPos="492.80" arrivalSpeed="11.63" duration="86.00" routeLength="990.53" waitingTime="1.00" waitingCount="1" stopTime="0.00" timeLoss="21.45" rerouteNo="0" devices="tripinfo_NS_62" vType="car" speedFactor="1.10" vaporized=""/>
    <tripinfo id="WE_35" depart="35.00" departLane="1i_0" departPos="4.10" departSpeed="0.00" departDelay="0.00" arrival="151.00" arrivalLane="3o_0" arrivalPos="492.80" arrivalSpeed="9.37" duration="116.00" routeLength="990.53" waitingTime="4.00" waitingCount="2" stopTime="0.00" timeLoss="40.79" rerouteNo="0" devices="tripinfo_WE_35" vType="car" speedFactor="0.94" vaporized=""/>
    <tripinfo id="WE_37" depart="37.00" departLane="1i_0" departPos="4.10" departSpeed="0.00" departDelay="0.00" arrival="154.00" arrivalLane="4o_0" arrivalPos="492.80" arrivalSpeed="10.95" duration="117.00" routeLength="995.70" waitingTime="3.00" waitingCount="2" stopTime="0.00" timeLoss="47.11" rerouteNo="0" devices="tripinfo_WE_37" vType="car" speedFactor="1.01" vaporized=""/>
    <tripinfo id="EW_75" depart="75.00" departLane="4i_0" departPos="4.10" departSpeed="0.00" departDelay="0.00" arrival="156.00" arrivalLane="1o_0" arrivalPos="492.80" arrivalSpeed="9.55" duration="81.00" routeLength="990.53" waitingTime="0.00" waitingCount="0" stopTime="0.00" timeLoss="7.60" rerouteNo="0" devices="tripinfo_EW_75" vType="car" speedFactor="0.96" vaporized=""/>
    <tripinfo id="SN_73" depart="73.00" departLane="3i_0" departPos="4.10" departSpeed="0.00" departDelay="0.00" arrival="158.00" arrivalLane="1o_0" arrivalPos="492.80" arrivalSpeed="11.36" duration="85.00" routeLength="995.70" waitingTime="0.00" waitingCount="0" stopTime="0.00" timeLoss="16.10" rerouteNo="0" devices="tripinfo_SN_73" vType="car" speedFactor="1.03" vaporized=""/>
    <tripinfo id="NS_76" depart="76.00" departLane="2i_0" departPos="4.10" departSpeed="0.00" departDelay="0.00" arrival="160.00" arrivalLane="3o_0" arrivalPos="492.80" arrivalSpeed="11.09" duration="84.00" routeLength="995.70" waitingTime="0.00" waitingCount="0" stopTime="0.00" timeLoss="18.50" rerouteNo="0" devices="tripinfo_NS_76" vType="car" speedFactor="1.09" vaporized=""/>
    <tripinfo id="NS_71" depart="71.00" departLane="2i_0" departPos="4.10" departSpeed="0.00" departDelay="0.00" arrival="166.00" arrivalLane="1o_0" arrivalPos="492.80" arrivalSpeed="8.96" duration="95.00" routeLength="995.90" waitingTime="2.00" waitingCount="2" stopTime="0.00" timeLoss="16.61" rerouteNo="0" devices="tripinfo_NS_71" vType="car" speedFactor="0.90" vaporized=""/>
    <tripinfo id="WE_51" depart="51.00" departLane="1i_0" departPos="4.10" departSpeed="0.00" departDelay="0.00" arrival="168.00" arrivalLane="2o_0" arrivalPos="492.80" arrivalSpeed="12.37" duration="117.00" routeLength="995.90" waitingTime="2.00" waitingCount="2" stopTime="0.00" timeLoss="54.08" rerouteNo="0" devices="tripinfo_WE_51" vType="car" speedFactor="1.13" vaporized=""/>
    <tripinfo id="WE_40" depart="40.00" departLane="1i_0" departPos="4.10" departSpeed="0.00" departDelay="0.00" arrival="172.00" arrivalLane="4o_0" arrivalPos="492.80" arrivalSpeed="9.63" duration="132.00" routeLength="995.70" waitingTime="9.00" waitingCount="3" stopTime="0.00" timeLoss="51.97" rerouteNo="0" devices="tripinfo_WE_40" vType="car" speedFactor="0.89" vaporized=""/>
    <tripinfo id="NS_78" depart="78.00" departLane="2i_0" departPos="4.10" departSpeed="0.00" departDelay="0.00" arrival="173.00" arrivalLane="4o_0" arrivalPos="492.80" arrivalSpeed="11.16" duration="95.00" routeLength="990.53" waitingTime="1.00" waitingCount="1" stopTime="0.00" timeLoss="27.28" rerouteNo="0" devices="tripinfo_NS_78" vType="car" speedFactor="1.04" vaporized=""/>
    <tripinfo id="NS_82" depart="82.00" departLane="2i_0" departPos="4.10" departSpeed="0.00" departDelay="0.00" arrival="174.00" arrivalLane="1o_0" arrivalPos="492.80" arrivalSpeed="11.01" duration="92.00" routeLength="995.90" waitingTime="2.00" waitingCount="2" stopTime="0.00" timeLoss="26.63" rerouteNo="0" devices="tripinfo_NS_82" vType="car" speedFactor="1.09" vaporized=""/>
    <tripinfo id="WE_47" depart="47.00" departLane="1i_0" departPos="4.10" departSpeed="0.00" departDelay="0.00" arrival="178.00" arrivalLane="4o_0" arrivalPos="492.80" arrivalSpeed="9.69" duration="131.00" routeLength="995.70" waitingTime="5.00" waitingCount="2" stopTime="0.00" timeLoss="49.74" rerouteNo="0" devices="tripinfo_WE_47" vType="car" speedFactor="0.87" vaporized=""/>
    <tripinfo id="EW_89" depart="89.00" departLane="4i_0" departPos="4.10" departSpeed="0.00" departDelay="0.00" arrival="181.00" arrivalLane="3o_0" arrivalPos="492.80" arrivalSpeed="9.57" duration="92.00" routeLength="995.90" waitingTime="0.00" waitingCount="0" stopTime="0.00" timeLoss="13.29" rerouteNo="0" devices="tripinfo_EW_89" vType="car" speedFactor="0.90" vaporized=""/>
    <tripinfo id="NS_83" depart="85.00" departLane="2i_0" departPos="4.10" departSpeed="0.00" departDelay="2.00" arrival="183.00" arrivalLane="3o_0" arrivalPos="492.80" arrivalSpeed="10.81" duration="98.00" routeLength="995.70" waitingTime="0.00" waitingCount="0" stopTime="0.00" timeLoss="26.64" rerouteNo="0" devices="tripinfo_NS_83" vType="car" speedFactor="1.00" vaporized=""/>
    <tripinfo id="WE_52" depart="54.00" departLane="1i_0" departPos="10.10" departSpeed="0.00" departDelay="2.00" arrival="186.00" arrivalLane="4o_0" arrivalPos="492.80" arrivalSpeed="10.57" duration="132.00" routeLength="989.70" waitingTime="6.00" waitingCount="3" stopTime="0.00" timeLoss="58.68" rerouteNo="0" devices="tripinfo_WE_52" vType="truck" speedFactor="0.97" vaporized=""/>
    <tripinfo id="NS_97" depart="97.00" departLane="2i_0" departPos="4.10" departSpeed="0.00" departDelay="0.00" arrival="195.00" arrivalLane="1o_0" arrivalPos="492.80" arrivalSpeed="8.92" duration="98.00" routeLength="995.90" waitingTime="2.00" waitingCount="2" stopTime="0.00" timeLoss="17.41" rerouteNo="0" devices="tripinfo_NS_97" vType="car" speedFactor="0.88" vaporized=""/>
    <tripinfo id="SN_115" depart="115.00" departLane="3i_0" departPos="4.10" departSpeed="0.00" departDelay="0.00" arrival="197.00" arrivalLane="1o_0" arrivalPos="492.80" arrivalSpeed="12.69" duration="82.00" routeLength="995.70" waitingTime="0.00" waitingCount="0" stopTime="0.00" timeLoss="19.59" rerouteNo="0" devices="tripinfo_SN_115" vType="car" speedFactor="1.14" vaporized=""/>
    <tripinfo id="SN_103" depart="103.00" departLane="3i_0" departPos="4.10" departSpeed="0.00" departDelay="0.00" arrival="199.00" arrivalLane="4o_0" arrivalPos="492.80" arrivalSpeed="9.26" duration="96.00" routeLength="995.90" waitingTime="0.00" waitingCount="0" stopTime="0.00" timeLoss="12.84" rerouteNo="0" devices="tripinfo_SN_103" vType="car" speedFactor="0.85" vaporized=""/>
    <tripinfo id="EW_100" depart="100.00" departLane="4i_0" departPos="4.10" departSpeed="0.00" departDelay="0.00" arrival="201.00" arrivalLane="2o_0" arrivalPos="492.80" arrivalSpeed="8.61" duration="101.00" routeLength="995.70" waitingTime="5.00" waitingCount="2" stopTime="0.00" timeLoss="17.84" rerouteNo="0" devices="tripinfo_EW_100" vType="car" speedFactor="0.85" vaporized=""/>
    <tripinfo id="WE_53" depart="60.00" departLane="1i_0" departPos="10.10" departSpeed="0.00" departDelay="7.00" arrival="204.00" arrivalLane="2o_0" arrivalPos="492.80" arrivalSpeed="10.84" duration="144.00" routeLength="989.90" waitingTime="8.00" waitingCount="3" stopTime="0.00" timeLoss="73.18" rerouteNo="0" devices="tripinfo_WE_53" vType="truck" speedFactor="1.00" vaporized=""/>
    <tripinfo id="WE_80" depart="80.00" departLane="1i_0" departPos="4.10" departSpeed="0.00" departDelay="0.00" arrival="205.00" arrivalLane="3o_0" arrivalPos="492.80" arrivalSpeed="10.88" duration="125.00" routeLength="990.53" waitingTime="1.00" waitingCount="1" stopTime="0.00" timeLoss="56.70" rerouteNo="0" devices="tripinfo_WE_80" vType="car" speedFactor="1.04" vaporized=""/>
    <tripinfo id="WE_55" depart="64.00" departLane="1i_0" departPos="4.10" departSpeed="0.00" departDelay="9.00" arrival="206.00" arrivalLane="2o_0" arrivalPos="492.80" arrivalSpeed="12.94" duration="142.00" routeLength="995.90" waitingTime="3.00" waitingCount="3" stopTime="0.00" timeLoss="81.04" rerouteNo="0" devices="tripinfo_WE_55" vType="car" speedFactor="1.17" vaporized=""/>
    <tripinfo id="WE_60" depart="67.00" departLane="1i_0" departPos="4.10" departSpeed="0.00" departDelay="7.00" arrival="208.00" arrivalLane="2o_0" arrivalPos="492.80" arrivalSpeed="9.79" duration="141.00" routeLength="995.90" waitingTime="3.00" waitingCount="2" stopTime="0.00" timeLoss="69.45" rerouteNo="0" devices="tripinfo_WE_60" vType="car" speedFactor="0.99" vaporized=""/>
    <tripinfo id="WE_112" depart="112.00" departLane="1i_0" departPos="4.10" departSpeed="0.00" departDelay="0.00" arrival="208.00" arrivalLane="3o_0" arrivalPos="492.80" arrivalSpeed="10.07" duration="96.00" routeLength="990.53" waitingTime="0.00" waitingCount="0" stopTime="0.00" timeLoss="25.28" rerouteNo="0" devices="tripinfo_WE_112" vType="car" speedFactor="1.00" vaporized=""/>
    <tripinfo id="WE_61" depart="70.00" departLane="1i_0" departPos="4.10" departSpeed="0.00" departDelay="9.00" arrival="210.00" arrivalLane="2o_0" arrivalPos="492.80" arrivalSpeed="10.55" duration="140.00" routeLength="995.90" waitingTime="1.00" waitingCount="1" stopTime="0.00" timeLoss="66.63" rerouteNo="0" devices="tripinfo_WE_61" vType="car" speedFactor="0.97" vaporized=""/>
    <tripinfo id="WE_117" depart="117.00" departLane="1i_0" departPos="4.10" departSpeed="0.00" departDelay="0.00" arrival="210.00" arrivalLane="3o_0" arrivalPos="492.80" arrivalSpeed="10.35" duration="93.00" routeLength="990.53" waitingTime="0.00" waitingCount="0" stopTime="0.00" timeLoss="24.08" rerouteNo="0" devices="tripinfo_WE_117" vType="car" speedFactor="1.02" vaporized=""/>
    <tripinfo id="WE_127" depart="127.00" departLane="1i_0" departPos="4.10" departSpeed="0.00" departDelay="0.00" arrival="212.00" arrivalLane="3o_0" arrivalPos="492.80" arrivalSpeed="10.93" duration="85.00" routeLength="990.53" waitingTime="0.00" waitingCount="0" stopTime="0.00" timeLoss="15.41" rerouteNo="0" devices="tripinfo_WE_127" vType="car" speedFactor="1.02" vaporized=""/>
    <tripinfo id="NS_110" depart="110.00" departLane="2i_0" departPos="4.10" departSpeed="0.00" departDelay="0.00" arrival="231.00" arrivalLane="3o_0" arrivalPos="492.80" arrivalSpeed="10.88" duration="121.00" routeLength="995.70" waitingTime="36.00" waitingCount="1" stopTime="0.00" timeLoss="50.69" rerouteNo="0" devices="tripinfo_NS_110" vType="car" speedFactor="1.02" vaporized=""/>
    <tripinfo id="NS_111" depart="113.00" departLane="2i_0" departPos="4.10" departSpeed="0.00" departDelay="2.00" arrival="233.00" arrivalLane="3o_0" arrivalPos="492.80" arrivalSpeed="10.00" duration="120.00" routeLength="995.70" waitingTime="34.00" waitingCount="1" stopTime="0.00" timeLoss="49.62" rerouteNo="0" devices="tripinfo_NS_111" vType="car" speedFactor="1.00" vaporized=""/>
    <tripinfo id="NS_120" depart="122.00" departLane="2i_0" departPos="4.10" departSpeed="0.00" departDelay="2.00" arrival="233.00" arrivalLane="4o_0" arrivalPos="492.80" arrivalSpeed="11.05" duration="111.00" routeLength="990.53" waitingTime="30.00" waitingCount="1" stopTime="0.00" timeLoss="45.95" rerouteNo="0" devices="tripinfo_NS_120" vType="car" speedFactor="1.08" vaporized=""/>
    <tripinfo id="EW_107" depart="107.00" departLane="4i_0" departPos="4.10" departSpeed="0.00" departDelay="0.00" arrival="241.00" arrivalLane="3o_0" arrivalPos="492.80" arrivalSpeed="12.24" duration="134.00" routeLength="995.90" waitingTime="51.00" waitingCount="4" stopTime="0.00" timeLoss="73.17" rerouteNo="0" devices="tripinfo_EW_107" vType="car" speedFactor="1.17" vaporized=""/>
    <tripinfo id="NS_115" depart="116.00" departLane="2i_0" departPos="4.10" departSpeed="0.00" departDelay="1.00" arrival="241.00" arrivalLane="1o_0" arrivalPos="492.80" arrivalSpeed="9.17" duration="125.00" routeLength="995.90" waitingTime="32.00" waitingCount="1" stopTime="0.00" timeLoss="46.44" rerouteNo="0" devices="tripinfo_NS_115" vType="car" speedFactor="0.90" vaporized=""/>
    <tripinfo id="NS_129" depart="130.00" departLane="2i_0" departPos="4.10" departSpeed="0.00" departDelay="1.00" arrival="243.00" arrivalLane="1o_0" arrivalPos="492.80" arrivalSpeed="10.59" duration="113.00" routeLength="995.90" waitingTime="23.00" waitingCount="1" stopTime="0.00" timeLoss="40.94" rerouteNo="0" devices="tripinfo_NS_129" vType="car" speedFactor="0.99" vaporized=""/>
    <tripinfo id="EW_111" depart="111.00" departLane="4i_0" departPos="4.10" departSpeed="0.00" departDelay="0.00" arrival="245.00" arrivalLane="1o_0" arrivalPos="492.80" arrivalSpeed="12.13" duration="134.00" routeLength="990.53" waitingTime="49.00" waitingCount="4" stopTime="0.00" timeLoss="69.40" rerouteNo="0" devices="tripinfo_EW_111" vType="car" speedFactor="1.10" vaporized=""/>
    <tripinfo id="WE_133" depart="133.00" departLane="1i_0" departPos="10.10" departSpeed="0.00" departDelay="0.00" arrival="246.00" arrivalLane="4o_0" arrivalPos="492.80" arrivalSpeed="10.49" duration="113.00" routeLength="989.70" waitingTime="19.00" waitingCount="1" stopTime="0.00" timeLoss="40.02" rerouteNo="0" devices="tripinfo_WE_133" vType="truck" speedFactor="0.97" vaporized=""/>
    <tripinfo id="WE_143" depart="146.00" departLane="1i_0" departPos="4.10" departSpeed="0.00" departDelay="3.00" arrival="251.00" arrivalLane="3o_0" arrivalPos="492.80" arrivalSpeed="10.91" duration="105.00" routeLength="990.53" waitingTime="17.00" waitingCount="2" stopTime="0.00" timeLoss="35.75" rerouteNo="0" devices="tripinfo_WE_143" vType="car" speedFactor="1.02" vaporized=""/>
    <tripinfo id="EW_118" depart="118.00" departLane="4i_0" departPos="4.10" departSpeed="0.00" departDelay="0.00" arrival="253.00" arrivalLane="1o_0" arrivalPos="492.80" arrivalSpeed="10.15" duration="135.00" routeLength="990.53" waitingTime="45.00" waitingCount="2" stopTime="0.00" timeLoss="62.00" rerouteNo="0" devices="tripinfo_EW_118" vType="car" speedFactor="0.97" vaporized=""/>
    <tripinfo id="SN_133" depart="134.00" departLane="3i_0" departPos="4.10" departSpeed="0.00" departDelay="1.00" arrival="255.00" arrivalLane="4o_0" arrivalPos="492.80" arrivalSpeed="8.97" duration="121.00" routeLength="995.90" waitingTime="26.00" waitingCount="2" stopTime="0.00" timeLoss="40.48" rerouteNo="0" devices="tripinfo_SN_133" vType="car" speedFactor="0.88" vaporized=""/>
    <tripinfo id="WE_147" depart="149.00" departLane="1i_0" departPos="4.10" departSpeed="0.00" departDelay="2.00" arrival="256.00" arrivalLane="3o_0" arrivalPos="492.80" arrivalSpeed="9.52" duration="107.00" routeLength="990.53" waitingTime="13.00" waitingCount="2" stopTime="0.00" timeLoss="31.99" rerouteNo="0" devices="tripinfo_WE_147" vType="car" speedFactor="0.94" vaporized=""/>
    <tripinfo id="WE_153" depart="153.00" departLane="1i_0" departPos="4.10" departSpeed="0.00" departDelay="0.00" arrival="258.00" arrivalLane="3o_0" arrivalPos="492.80" arrivalSpeed="11.55" duration="105.00" routeLength="990.53" waitingTime="9.00" waitingCount="1" stopTime="0.00" timeLoss="37.75" rerouteNo="0" devices="tripinfo_WE_153" vType="car" speedFactor="1.06" vaporized=""/>
    <tripinfo id="WE_166" depart="166.00" departLane="1i_0" departPos="4.10" departSpeed="0.00" departDelay="0.00" arrival="259.00" arrivalLane="4o_0" arrivalPos="492.80" arrivalSpeed="10.28" duration="93.00" routeLength="995.70" waitingTime="0.00" waitingCount="0" stopTime="0.00" timeLoss="20.82" rerouteNo="0" devices="tripinfo_WE_166" vType="car" speedFactor="0.98" vaporized=""/>
    <tripinfo id="NS_138" depart="138.00" departLane="2i_0" departPos="10.10" departSpeed="0.00" departDelay="0.00" arrival="263.00" arrivalLane="3o_0" arrivalPos="492.80" arrivalSpeed="10.42" duration="125.00" routeLength="989.70" waitingTime="20.00" waitingCount="3" stopTime="0.00" timeLoss="50.78" rerouteNo="0" devices="tripinfo_NS_138" vType="truck" speedFactor="0.95" vaporized=""/>
    <tripinfo id="WE_174" depart="174.00" departLane="1i_0" departPos="4.10" departSpeed="0.00" departDelay="0.00" arrival="263.00" arrivalLane="4o_0" arrivalPos="492.80" arrivalSpeed="10.89" duration="89.00" routeLength="995.70" waitingTime="4.00" waitingCount="1" stopTime="0.00" timeLoss="23.53" rerouteNo="0" devices="tripinfo_WE_174" vType="car" speedFactor="1.09" vaporized=""/>
    <tripinfo id="NS_142" depart="145.00" departLane="2i_0" departPos="4.10" departSpeed="0.00" departDelay="3.00" arrival="267.00" arrivalLane="3o_0" arrivalPos="492.80" arrivalSpeed="11.44" duration="122.00" routeLength="995.70" waitingTime="15.00" waitingCount="3" stopTime="0.00" timeLoss="53.45" rerouteNo="0" devices="tripinfo_NS_142" vType="car" speedFactor="1.04" vaporized=""/>
    <tripinfo id="NS_141" depart="142.00" departLane="2i_0" departPos="4.10" departSpeed="0.00" departDelay="1.00" arrival="268.00" arrivalLane="1o_0" arrivalPos="492.80" arrivalSpeed="9.41" duration="126.00" routeLength="995.90" waitingTime="16.00" waitingCount="2" stopTime="0.00" timeLoss="48.34" rerouteNo="0" devices="tripinfo_NS_141" vType="car" speedFactor="0.91" vaporized=""/>
    <tripinfo id="EW_126" depart="128.00" departLane="4i_0" departPos="4.10" departSpeed="0.00" departDelay="2.00" arrival="269.00" arrivalLane="1o_0" arrivalPos="492.80" arrivalSpeed="11.99" duration="141.00" routeLength="990.53" waitingTime="45.00" waitingCount="3" stopTime="0.00" timeLoss="78.29" rerouteNo="0" devices="tripinfo_EW_126" vType="car" speedFactor="1.12" vaporized=""/>
    <tripinfo id="SN_172" depart="172.00" departLane="3i_0" departPos="10.10" departSpeed="0.00" departDelay="0.00" arrival="272.00" arrivalLane="4o_0" arrivalPos="492.80" arrivalSpeed="10.83" duration="100.00" routeLength="989.90" waitingTime="6.00" waitingCount="2" stopTime="0.00" timeLoss="29.70" rerouteNo="0" devices="tripinfo_SN_172" vType="truck" speedFactor="1.00" vaporized=""/>
    <tripinfo id="EW_153" depart="154.00" departLane="4i_0" departPos="4.10" departSpeed="0.00" departDelay="1.00" arrival="274.00" arrivalLane="3o_0" arrivalPos="492.80" arrivalSpeed="9.82" duration="120.00" routeLength="995.90" waitingTime="17.00" waitingCount="3" stopTime="0.00" timeLoss="45.38" rerouteNo="0" devices="tripinfo_EW_153" vType="car" speedFactor="0.96" vaporized=""/>