<?xml version="1.0" encoding="UTF-8"?>

<!-- generated on 2024-05-04 17:53:38 by Eclipse SUMO sumo Version 1.19.0
<configuration xmlns:xsi="http://www.w3.org/2001/XMLSchema-instance" xsi:noNamespaceSchemaLocation="http://sumo.dlr.de/xsd/sumoConfiguration.xsd">

    <input>
        <net-file value="test5.net.xml"/>
        <route-files value="route_gen.rou.xml"/>
    </input>

    <output>
        <tripinfo-output value="tripinfo_epi259.xml"/>
    </output>

    <report>
        <no-warnings value="true"/>
    </report>

    <traci_server>
        <remote-port value="52673"/>
    </traci_server>

</configuration>
-->

<tripinfos xmlns:xsi="http://www.w3.org/2001/XMLSchema-instance" xsi:noNamespaceSchemaLocation="http://sumo.dlr.de/xsd/tripinfo_file.xsd">
    <tripinfo id="SN_0" depart="0.00" departLane="3i_0" departPos="4.10" departSpeed="0.00" departDelay="0.00" arrival="83.00" arrivalLane="2o_0" arrivalPos="492.80" arrivalSpeed="10.08" duration="83.00" routeLength="990.53" waitingTime="0.00" waitingCount="0" stopTime="0.00" timeLoss="7.31" rerouteNo="0" devices="tripinfo_SN_0" vType="car" speedFactor="0.94" vaporized=""/>
    <tripinfo id="EW_10" depart="10.00" departLane="4i_0" departPos="4.10" departSpeed="0.00" departDelay="0.00" arrival="88.00" arrivalLane="3o_0" arrivalPos="492.80" arrivalSpeed="10.43" duration="78.00" routeLength="995.90" waitingTime="0.00" waitingCount="0" stopTime="0.00" timeLoss="8.05" rerouteNo="0" devices="tripinfo_EW_10" vType="car" speedFactor="1.01" vaporized=""/>
    <tripinfo id="SN_17" depart="17.00" departLane="3i_0" departPos="4.10" departSpeed="0.00" departDelay="0.00" arrival="96.00" arrivalLane="1o_0" arrivalPos="492.80" arrivalSpeed="10.44" duration="79.00" routeLength="995.70" waitingTime="0.00" waitingCount="0" stopTime="0.00" timeLoss="10.20" rerouteNo="0" devices="tripinfo_SN_17" vType="car" speedFactor="1.03" vaporized=""/>
    <tripinfo id="WE_0" depart="0.00" departLane="1i_0" departPos="4.10" departSpeed="0.00" departDelay="0.00" arrival="98.00" arrivalLane="3o_0" arrivalPos="492.80" arrivalSpeed="11.17" duration="98.00" routeLength="990.53" waitingTime="18.00" waitingCount="1" stopTime="0.00" timeLoss="31.67" rerouteNo="0" devices="tripinfo_WE_0" vType="car" speedFactor="1.06" vaporized=""/>
    <tripinfo id="WE_13" depart="13.00" departLane="1i_0" departPos="4.10" departSpeed="0.00" departDelay="0.00" arrival="104.00" arrivalLane="3o_0" arrivalPos="492.80" arrivalSpeed="11.80" duration="91.00" routeLength="990.53" waitingTime="8.00" waitingCount="2" stopTime="0.00" timeLoss="25.42" rerouteNo="0" devices="tripinfo_WE_13" vType="car" speedFactor="1.08" vaporized=""/>
    <tripinfo id="EW_19" depart="19.00" departLane="4i_0" departPos="4.10" departSpeed="0.00" departDelay="0.00" arrival="113.00" arrivalLane="1o_0" arrivalPos="492.80" arrivalSpeed="9.20" duration="94.00" routeLength="990.53" waitingTime="0.00" waitingCount="0" stopTime="0.00" timeLoss="8.68" rerouteNo="0" devices="tripinfo_EW_19" vType="car" speedFactor="0.83" vaporized=""/>
    <tripinfo id="SN_23" depart="23.00" departLane="3i_0" departPos="4.10" departSpeed="0.00" departDelay="0.00" arrival="115.00" arrivalLane="1o_0" arrivalPos="492.80" arrivalSpeed="10.75" duration="92.00" routeLength="995.70" waitingTime="0.00" waitingCount="0" stopTime="0.00" timeLoss="23.68" rerouteNo="0" devices="tripinfo_SN_23" vType="car" speedFactor="1.05" vaporized=""/>
    <tripinfo id="EW_28" depart="28.00" departLane="4i_0" departPos="4.10" departSpeed="0.00" departDelay="0.00" arrival="117.00" arrivalLane="1o_0" arrivalPos="492.80" arrivalSpeed="9.84" duration="89.00" routeLength="990.53" waitingTime="0.00" waitingCount="0" stopTime="0.00" timeLoss="8.84" rerouteNo="0" devices="tripinfo_EW_28" vType="car" speedFactor="0.89" vaporized=""/>
    <tripinfo id="SN_36" depart="36.00" departLane="3i_0" departPos="4.10" departSpeed="0.00" departDelay="0.00" arrival="119.00" arrivalLane="2o_0" arrivalPos="492.80" arrivalSpeed="9.68" duration="83.00" routeLength="990.53" waitingTime="0.00" waitingCount="0" stopTime="0.00" timeLoss="7.43" rerouteNo="0" devices="tripinfo_SN_36" vType="car" speedFactor="0.94" vaporized=""/>
    <tripinfo id="SN_52" depart="52.00" departLane="3i_0" departPos="4.10" departSpeed="0.00" departDelay="0.00" arrival="128.00" arrivalLane="2o_0" arrivalPos="492.80" arrivalSpeed="10.88" duration="76.00" routeLength="990.53" waitingTime="0.00" waitingCount="0" stopTime="0.00" timeLoss="8.23" rerouteNo="0" devices="tripinfo_SN_52" vType="car" speedFactor="1.05" vaporized=""/>
    <tripinfo id="NS_51" depart="51.00" departLane="2i_0" departPos="4.10" departSpeed="0.00" departDelay="0.00" arrival="133.00" arrivalLane="1o_0" arrivalPos="492.80" arrivalSpeed="11.39" duration="82.00" routeLength="995.90" waitingTime="1.00" waitingCount="1" stopTime="0.00" timeLoss="12.44" rerouteNo="0" devices="tripinfo_NS_51" vType="car" speedFactor="1.03" vaporized=""/>
    <tripinfo id="WE_40" depart="40.00" departLane="1i_0" departPos="4.10" departSpeed="0.00" departDelay="0.00" arrival="142.00" arrivalLane="2o_0" arrivalPos="492.80" arrivalSpeed="9.44" duration="102.00" routeLength="995.90" waitingTime="7.00" waitingCount="1" stopTime="0.00" timeLoss="19.17" rerouteNo="0" devices="tripinfo_WE_40" vType="car" speedFactor="0.86" vaporized=""/>
    <tripinfo id="WE_50" depart="50.00" departLane="1i_0" departPos="4.10" departSpeed="0.00" departDelay="0.00" arrival="144.00" arrivalLane="2o_0" arrivalPos="492.80" arrivalSpeed="11.88" duration="94.00" routeLength="995.90" waitingTime="6.00" waitingCount="2" stopTime="0.00" timeLoss="28.60" rerouteNo="0" devices="tripinfo_WE_50" vType="car" speedFactor="1.09" vaporized=""/>
    <tripinfo id="WE_53" depart="53.00" departLane="1i_0" departPos="4.10" departSpeed="0.00" departDelay="0.00" arrival="144.00" arrivalLane="4o_0" arrivalPos="492.80" arrivalSpeed="11.18" duration="91.00" routeLength="995.70" waitingTime="6.00" waitingCount="3" stopTime="0.00" timeLoss="27.35" rerouteNo="0" devices="tripinfo_WE_53" vType="car" speedFactor="1.12" vaporized=""/>
    <tripinfo id="NS_57" depart="57.00" departLane="2i_0" departPos="4.10" departSpeed="0.00" departDelay="0.00" arrival="147.00" arrivalLane="3o_0" arrivalPos="492.80" arrivalSpeed="9.76" duration="90.00" routeLength="995.70" waitingTime="2.00" waitingCount="1" stopTime="0.00" timeLoss="18.38" rerouteNo="0" devices="tripinfo_NS_57" vType="car" speedFactor="0.99" vaporized=""/>
    <tripinfo id="EW_63" depart="63.00" departLane="4i_0" departPos="4.10" departSpeed="0.00" departDelay="0.00" arrival="147.00" arrivalLane="1o_0" arrivalPos="492.80" arrivalSpeed="9.50" duration="84.00" routeLength="990.53" waitingTime="0.00" waitingCount="0" stopTime="0.00" timeLoss="8.85" rerouteNo="0" devices="tripinfo_EW_63" vType="car" speedFactor="0.94" vaporized=""/>
    <tripinfo id="NS_64" depart="64.00" departLane="2i_0" departPos="4.10" departSpeed="0.00" departDelay="0.00" arrival="147.00" arrivalLane="4o_0" arrivalPos="492.80" arrivalSpeed="11.75" duration="83.00" routeLength="990.53" waitingTime="3.00" waitingCount="3" stopTime="0.00" timeLoss="21.90" rerouteNo="0" devices="tripinfo_NS_64" vType="car" speedFactor="1.16" vaporized=""/>
    <tripinfo id="EW_59" depart="59.00" departLane="4i_0" departPos="4.10" departSpeed="0.00" departDelay="0.00" arrival="148.00" arrivalLane="2o_0" arrivalPos="492.80" arrivalSpeed="9.78" duration="89.00" routeLength="995.70" waitingTime="0.00" waitingCount="0" stopTime="0.00" timeLoss="12.06" rerouteNo="0" devices="tripinfo_EW_59" vType="car" speedFactor="0.93" vaporized=""/>
    <tripinfo id="EW_65" depart="66.00" departLane="4i_0" departPos="10.10" departSpeed="0.00" departDelay="1.00" arrival="152.00" arrivalLane="3o_0" arrivalPos="492.80" arrivalSpeed="10.81" duration="86.00" routeLength="989.90" waitingTime="0.00" waitingCount="0" stopTime="0.00" timeLoss="15.62" rerouteNo="0" devices="tripinfo_EW_65" vType="truck" speedFactor="1.01" vaporized=""/>
    <tripinfo id="SN_59" depart="59.00" departLane="3i_0" departPos="4.10" departSpeed="0.00" departDelay="0.00" arrival="153.00" arrivalLane="2o_0" arrivalPos="492.80" arrivalSpeed="8.51" duration="94.00" routeLength="990.53" waitingTime="1.00" waitingCount="1" stopTime="0.00" timeLoss="14.12" rerouteNo="0" devices="tripinfo_SN_59" vType="car" speedFactor="0.88" vaporized=""/>
    <tripinfo id="WE_61" depart="61.00" departLane="1i_0" departPos="4.10" departSpeed="0.00" departDelay="0.00" arrival="155.00" arrivalLane="2o_0" arrivalPos="492.80" arrivalSpeed="9.76" duration="94.00" routeLength="995.90" waitingTime="1.00" waitingCount="1" stopTime="0.00" timeLoss="18.77" rerouteNo="0" devices="tripinfo_WE_61" vType="car" speedFactor="0.94" vaporized=""/>
    <tripinfo id="WE_66" depart="66.00" departLane="1i_0" departPos="4.10" departSpeed="0.00" departDelay="0.00" arrival="157.00" arrivalLane="3o_0" arrivalPos="492.80" arrivalSpeed="10.51" duration="91.00" routeLength="990.53" waitingTime="4.00" waitingCount="1" stopTime="0.00" timeLoss="21.23" rerouteNo="0" devices="tripinfo_WE_66" vType="car" speedFactor="1.01" vaporized=""/>
    <tripinfo id="EW_69" depart="70.00" departLane="4i_0" departPos="4.10" departSpeed="0.00" departDelay="1.00" arrival="161.00" arrivalLane="1o_0" arrivalPos="492.80" arrivalSpeed="8.76" duration="91.00" routeLength="990.53" waitingTime="0.00" waitingCount="0" stopTime="0.00" timeLoss="11.57" rerouteNo="0" devices="tripinfo_EW_69" vType="car" speedFactor="0.89" vaporized=""/>
    <tripinfo id="WE_68" depart="69.00" departLane="1i_0" departPos="4.10" departSpeed="0.00" departDelay="1.00" arrival="164.00" arrivalLane="2o_0" arrivalPos="492.80" arrivalSpeed="10.71" duration="95.00" routeLength="995.90" waitingTime="4.00" waitingCount="2" stopTime="0.00" timeLoss="21.91" rerouteNo="0" devices="tripinfo_WE_68" vType="car" speedFactor="0.97" vaporized=""/>
    <tripinfo id="SN_95" depart="95.00" departLane="3i_0" departPos="4.10" departSpeed="0.00" departDelay="0.00" arrival="165.00" arrivalLane="2o_0" arrivalPos="492.80" arrivalSpeed="12.07" duration="70.00" routeLength="990.53" waitingTime="0.00" waitingCount="0" stopTime="0.00" timeLoss="9.89" rerouteNo="0" devices="tripinfo_SN_95" vType="car" speedFactor="1.17" vaporized=""/>
    <tripinfo id="EW_93" depart="93.00" departLane="4i_0" departPos="4.10" departSpeed="0.00" departDelay="0.00" arrival="171.00" arrivalLane="3o_0" arrivalPos="492.80" arrivalSpeed="12.19" duration="78.00" routeLength="995.90" waitingTime="0.00" waitingCount="0" stopTime="0.00" timeLoss="17.74" rerouteNo="0" devices="tripinfo_EW_93" vType="car" speedFactor="1.18" vaporized=""/>
    <tripinfo id="EW_90" depart="90.00" departLane="4i_0" departPos="4.10" departSpeed="0.00" departDelay="0.00" arrival="177.00" arrivalLane="2o_0" arrivalPos="492.80" arrivalSpeed="9.67" duration="87.00" routeLength="995.70" waitingTime="0.00" waitingCount="0" stopTime="0.00" timeLoss="10.52" rerouteNo="0" devices="tripinfo_EW_90" vType="car" speedFactor="0.93" vaporized=""/>
    <tripinfo id="NS_103" depart="103.00" departLane="2i_0" departPos="4.10" departSpeed="0.00" departDelay="0.00" arrival="178.00" arrivalLane="1o_0" arrivalPos="492.80" arrivalSpeed="11.85" duration="75.00" routeLength="995.90" waitingTime="0.00" waitingCount="0" stopTime="0.00" timeLoss="10.58" rerouteNo="0" devices="tripinfo_NS_103" vType="car" speedFactor="1.10" vaporized=""/>
    <tripinfo id="SN_84" depart="84.00" departLane="3i_0" departPos="4.10" departSpeed="0.00" departDelay="0.00" arrival="179.00" arrivalLane="4o_0" arrivalPos="492.80" arrivalSpeed="8.37" duration="95.00" routeLength="995.90" waitingTime="0.00" waitingCount="0" stopTime="0.00" timeLoss="9.13" rerouteNo="0" devices="tripinfo_SN_84" vType="car" speedFactor="0.83" vaporized=""/>
    <tripinfo id="EW_95" depart="95.00" departLane="4i_0" departPos="4.10" departSpeed="0.00" departDelay="0.00" arrival="180.00" arrivalLane="3o_0" arrivalPos="492.80" arrivalSpeed="10.27" duration="85.00" routeLength="995.90" waitingTime="0.00" waitingCount="0" stopTime="0.00" timeLoss="14.24" rerouteNo="0" devices="tripinfo_EW_95" vType="car" speedFactor="1.01" vaporized=""/>
    <tripinfo id="NS_93" depart="93.00" departLane="2i_0" departPos="4.10" departSpeed="0.00" departDelay="0.00" arrival="181.00" arrivalLane="4o_0" arrivalPos="492.80" arrivalSpeed="12.67" duration="88.00" routeLength="990.53" waitingTime="1.00" waitingCount="1" stopTime="0.00" timeLoss="26.41" rerouteNo="0" devices="tripinfo_NS_93" vType="car" speedFactor="1.15" vaporized=""/>
    <tripinfo id="WE_87" depart="87.00" departLane="1i_0" departPos="4.10" departSpeed="0.00" departDelay="0.00" arrival="183.00" arrivalLane="2o_0" arrivalPos="492.80" arrivalSpeed="8.50" duration="96.00" routeLength="995.90" waitingTime="2.00" waitingCount="1" stopTime="0.00" timeLoss="14.95" rerouteNo="0" devices="tripinfo_WE_87" vType="car" speedFactor="0.87" vaporized=""/>
    <tripinfo id="EW_98" depart="100.00" departLane="4i_0" departPos="10.10" departSpeed="0.00" departDelay="2.00" arrival="183.00" arrivalLane="1o_0" arrivalPos="492.80" arrivalSpeed="10.71" duration="83.00" routeLength="984.53" waitingTime="0.00" waitingCount="0" stopTime="0.00" timeLoss="13.65" rerouteNo="0" devices="tripinfo_EW_98" vType="truck" speedFactor="1.01" vaporized=""/>
    <tripinfo id="WE_88" depart="90.00" departLane="1i_0" departPos="4.10" departSpeed="0.00" departDelay="2.00" arrival="191.00" arrivalLane="4o_0" arrivalPos="492.80" arrivalSpeed="9.32" duration="101.00" routeLength="995.70" waitingTime="4.00" waitingCount="3" stopTime="0.00" timeLoss="23.41" rerouteNo="0" devices="tripinfo_WE_88" vType="car" speedFactor="0.92" vaporized=""/>
    <tripinfo id="EW_108" depart="108.00" departLane="4i_0" departPos="10.10" departSpeed="0.00" departDelay="0.00" arrival="192.00" arrivalLane="1o_0" arrivalPos="492.80" arrivalSpeed="10.46" duration="84.00" routeLength="984.53" waitingTime="0.00" waitingCount="0" stopTime="0.00" timeLoss="12.42" rerouteNo="0" devices="tripinfo_EW_108" vType="truck" speedFactor="0.98" vaporized=""/>
    <tripinfo id="NS_107" depart="107.00" departLane="2i_0" departPos="4.10" departSpeed="0.00" departDelay="0.00" arrival="193.00" arrivalLane="4o_0" arrivalPos="492.80" arrivalSpeed="11.14" duration="86.00" routeLength="990.53" waitingTime="1.00" waitingCount="1" stopTime="0.00" timeLoss="16.92" rerouteNo="0" devices="tripinfo_NS_107" vType="car" speedFactor="1.03" vaporized=""/>
    <tripinfo id="WE_89" depart="93.00" departLane="1i_0" departPos="4.10" departSpeed="0.00" departDelay="4.00" arrival="195.00" arrivalLane="2o_0" arrivalPos="492.80" arrivalSpeed="9.26" duration="102.00" routeLength="995.90" waitingTime="4.00" waitingCount="4" stopTime="0.00" timeLoss="26.86" rerouteNo="0" devices="tripinfo_WE_89" vType="car" speedFactor="0.95" vaporized=""/>
    <tripinfo id="WE_90" depart="96.00" departLane="1i_0" departPos="4.10" departSpeed="0.00" departDelay="6.00" arrival="196.00" arrivalLane="2o_0" arrivalPos="492.80" arrivalSpeed="12.08" duration="100.00" routeLength="995.90" waitingTime="2.00" waitingCount="2" stopTime="0.00" timeLoss="37.46" rerouteNo="0" devices="tripinfo_WE_90" vType="car" speedFactor="1.13" vaporized=""/>
    <tripinfo id="NS_111" depart="111.00" departLane="2i_0" departPos="4.10" departSpeed="0.00" departDelay="0.00" arrival="198.00" arrivalLane="3o_0" arrivalPos="492.80" arrivalSpeed="11.37" duration="87.00" routeLength="995.70" waitingTime="3.00" waitingCount="2" stopTime="0.00" timeLoss="21.45" rerouteNo="0" devices="tripinfo_NS_111" vType="car" speedFactor="1.09" vaporized=""/>
    <tripinfo id="EW_110" depart="113.00" departLane="4i_0" departPos="10.10" departSpeed="0.00" departDelay="3.00" arrival="205.00" arrivalLane="3o_0" arrivalPos="492.80" arrivalSpeed="10.77" duration="92.00" routeLength="989.90" waitingTime="2.00" waitingCount="1" stopTime="0.00" timeLoss="23.19" rerouteNo="0" devices="tripinfo_EW_110" vType="truck" speedFactor="1.02" vaporized=""/>
    <tripinfo id="EW_125" depart="125.00" departLane="4i_0" departPos="4.10" departSpeed="0.00" departDelay="0.00" arrival="208.00" arrivalLane="1o_0" arrivalPos="492.80" arrivalSpeed="10.76" duration="83.00" routeLength="990.53" waitingTime="0.00" waitingCount="0" stopTime="0.00" timeLoss="12.45" rerouteNo="0" devices="tripinfo_EW_125" vType="car" speedFactor="1.00" vaporized=""/>
    <tripinfo id="WE_97" depart="99.00" departLane="1i_0" departPos="4.10" departSpeed="0.00" departDelay="2.00" arrival="211.00" arrivalLane="3o_0" arrivalPos="492.80" arrivalSpeed="10.88" duration="112.00" routeLength="990.53" waitingTime="9.00" waitingCount="3" stopTime="0.00" timeLoss="41.06" rerouteNo="0" devices="tripinfo_WE_97" vType="car" speedFactor="0.99" vaporized=""/>
    <tripinfo id="SN_126" depart="126.00" departLane="3i_0" departPos="4.10" departSpeed="0.00" departDelay="0.00" arrival="214.00" arrivalLane="4o_0" arrivalPos="492.80" arrivalSpeed="9.64" duration="88.00" routeLength="995.90" waitingTime="0.00" waitingCount="0" stopTime="0.00" timeLoss="8.78" rerouteNo="0" devices="tripinfo_SN_126" vType="car" speedFactor="0.90" vaporized=""/>
    <tripinfo id="WE_101" depart="102.00" departLane="1i_0" departPos="4.10" departSpeed="0.00" departDelay="1.00" arrival="219.00" arrivalLane="4o_0" arrivalPos="492.80" arrivalSpeed="9.72" duration="117.00" routeLength="995.70" waitingTime="4.00" waitingCount="2" stopTime="0.00" timeLoss="43.92" rerouteNo="0" devices="tripinfo_WE_101" vType="car" speedFactor="0.97" vaporized=""/>
    <tripinfo id="EW_129" depart="129.00" departLane="4i_0" departPos="4.10" departSpeed="0.00" departDelay="0.00" arrival="219.00" arrivalLane="3o_0" arrivalPos="492.80" arrivalSpeed="8.87" duration="90.00" routeLength="995.90" waitingTime="0.00" waitingCount="0" stopTime="0.00" timeLoss="9.57" rerouteNo="0" devices="tripinfo_EW_129" vType="car" speedFactor="0.88" vaporized=""/>
    <tripinfo id="WE_102" depart="105.00" departLane="1i_0" departPos="4.10" departSpeed="0.00" departDelay="3.00" arrival="224.00" arrivalLane="4o_0" arrivalPos="492.80" arrivalSpeed="12.52" duration="119.00" routeLength="995.70" waitingTime="12.00" waitingCount="4" stopTime="0.00" timeLoss="58.60" rerouteNo="0" devices="tripinfo_WE_102" vType="car" speedFactor="1.18" vaporized=""/>
    <tripinfo id="NS_133" depart="133.00" departLane="2i_0" departPos="4.10" departSpeed="0.00" departDelay="0.00" arrival="229.00" arrivalLane="1o_0" arrivalPos="492.80" arrivalSpeed="9.49" duration="96.00" routeLength="995.90" waitingTime="1.00" waitingCount="1" stopTime="0.00" timeLoss="13.05" rerouteNo="0" devices="tripinfo_NS_133" vType="car" speedFactor="0.85" vaporized=""/>
    <tripinfo id="SN_143" depart="143.00" departLane="3i_0" departPos="4.10" departSpeed="0.00" departDelay="0.00" arrival="231.00" arrivalLane="1o_0" arrivalPos="492.80" arrivalSpeed="11.82" duration="88.00" routeLength="995.70" waitingTime="0.00" waitingCount="0" stopTime="0.00" timeLoss="22.97" rerouteNo="0" devices="tripinfo_SN_143" vType="car" speedFactor="1.10" vaporized=""/>
    <tripinfo id="EW_130" depart="131.00" departLane="4i_0" departPos="4.10" departSpeed="0.00" departDelay="1.00" arrival="233.00" arrivalLane="2o_0" arrivalPos="492.80" arrivalSpeed="9.39" duration="102.00" routeLength="995.70" waitingTime="4.00" waitingCount="1" stopTime="0.00" timeLoss="18.13" rerouteNo="0" devices="tripinfo_EW_130" vType="car" speedFactor="0.85" vaporized=""/>
    <tripinfo id="NS_142" depart="142.00" departLane="2i_0" departPos="4.10" departSpeed="0.00" departDelay="0.00" arrival="233.00" arrivalLane="1o_0" arrivalPos="492.80" arrivalSpeed="10.40" duration="91.00" routeLength="995.90" waitingTime="1.00" waitingCount="1" stopTime="0.00" timeLoss="20.97" rerouteNo="0" devices="tripinfo_NS_142" vType="car" speedFactor="1.02" vaporized=""/>
    <tripinfo id="EW_144" depart="144.00" departLane="4i_0" departPos="4.10" departSpeed="0.00" departDelay="0.00" arrival="234.00" arrivalLane="2o_0" arrivalPos="492.80" arrivalSpeed="10.77" duration="90.00" routeLength="995.70" waitingTime="1.00" waitingCount="1" stopTime="0.00" timeLoss="19.55" rerouteNo="0" devices="tripinfo_EW_144" vType="car" speedFactor="1.00" vaporized=""/>
    <tripinfo id="EW_148" depart="148.00" departLane="4i_0" departPos="4.10" departSpeed="0.00" departDelay="0.00" arrival="235.00" arrivalLane="1o_0" arrivalPos="492.80" arrivalSpeed="10.75" duration="87.00" routeLength="990.53" waitingTime="0.00" waitingCount="0" stopTime="0.00" timeLoss="15.59" rerouteNo="0" devices="tripinfo_EW_148" vType="car" speedFactor="1.00" vaporized=""/>
    <tripinfo id="WE_109" depart="111.00" departLane="1i_0" departPos="4.10" departSpeed="0.00" departDelay="2.00" arrival="236.00" arrivalLane="2o_0" arrivalPos="492.80" arrivalSpeed="11.64" duration="125.00" routeLength="995.90" waitingTime="4.00" waitingCount="3" stopTime="0.00" timeLoss="59.91" rerouteNo="0" devices="tripinfo_WE_109" vType="car" speedFactor="1.09" vaporized=""/>
    <tripinfo id="WE_142" depart="142.00" departLane="1i_0" departPos="4.10" departSpeed="0.00" departDelay="0.00" arrival="239.00" arrivalLane="3o_0" arrivalPos="492.80" arrivalSpeed="12.65" duration="97.00" routeLength="990.53" waitingTime="1.00" waitingCount="1" stopTime="0.00" timeLoss="36.96" rerouteNo="0" devices="tripinfo_WE_142" vType="car" speedFactor="1.17" vaporized=""/>
    <tripinfo id="WE_110" depart="117.00" departLane="1i_0" departPos="4.10" departSpeed="0.00" departDelay="7.00" arrival="240.00" arrivalLane="2o_0" arrivalPos="492.80" arrivalSpeed="10.60" duration="123.00" routeLength="995.90" waitingTime="3.00" waitingCount="3" stopTime="0.00" timeLoss="54.85" rerouteNo="0" devices="tripinfo_WE_110" vType="car" speedFactor="1.04" vaporized=""/>
    <tripinfo id="WE_107" depart="108.00" departLane="1i_0" departPos="4.10" departSpeed="0.00" departDelay="1.00" arrival="241.00" arrivalLane="4o_0" arrivalPos="492.80" arrivalSpeed="9.62" duration="133.00" routeLength="995.70" waitingTime="7.00" waitingCount="4" stopTime="0.00" timeLoss="54.08" rerouteNo="0" devices="tripinfo_WE_107" vType="car" speedFactor="0.90" vaporized=""/>
    <tripinfo id="NS_160" depart="160.00" departLane="2i_0" departPos="4.10" departSpeed="0.00" departDelay="0.00" arrival="243.00" arrivalLane="4o_0" arrivalPos="492.80" arrivalSpeed="12.60" duration="83.00" routeLength="990.53" waitingTime="1.00" waitingCount="1" stopTime="0.00" timeLoss="20.74" rerouteNo="0" devices="tripinfo_NS_160" vType="car" speedFactor="1.14" vaporized=""/>
    <tripinfo id="NS_166" depart="166.00" departLane="2i_0" departPos="4.10" departSpeed="0.00" departDelay="0.00" arrival="244.00" arrivalLane="1o_0" arrivalPos="492.80" arrivalSpeed="10.79" duration="78.00" routeLength="995.90" waitingTime="0.00" waitingCount="0" stopTime="0.00" timeLoss="8.92" rerouteNo="0" devices="tripinfo_NS_166" vType="car" speedFactor="1.02" vaporized=""/>
    <tripinfo id="EW_172" depart="172.00" departLane="4i_0" departPos="4.10" departSpeed="0.00" departDelay="0.00" arrival="249.00" arrivalLane="3o_0" arrivalPos="492.80" arrivalSpeed="11.67" duration="77.00" routeLength="995.90" waitingTime="0.00" waitingCount="0" stopTime="0.00" timeLoss="11.12" rerouteNo="0" devices="tripinfo_EW_172" vType="car" speedFactor="1.08" vaporized=""/>
    <tripinfo id="NS_174" depart="174.00" departLane="2i_0" departPos="4.10" departSpeed="0.00" departDelay="0.00" arrival="250.00" arrivalLane="4o_0" arrivalPos="492.80" arrivalSpeed="12.15" duration="76.00" routeLength="990.53" waitingTime="1.00" waitingCount="1" stopTime="0.00" timeLoss="12.65" rerouteNo="0" devices="tripinfo_NS_174" vType="car" speedFactor="1.12" vaporized=""/>
    <tripinfo id="WE_157" depart="157.00" departLane="1i_0" departPos="4.10" departSpeed="0.00" departDelay="0.00" arrival="256.00" arrivalLane="2o_0" arrivalPos="492.80" arrivalSpeed="9.90" duration="99.00" routeLength="995.90" waitingTime="0.00" waitingCount="0" stopTime="0.00" timeLoss="20.27" rerouteNo="0" devices="tripinfo_WE_157" vType="car" speedFactor="0.90" vaporized=""/>
    <tripinfo id="SN_170" depart="171.00" departLane="3i_0" departPos="4.10" departSpeed="0.00" departDelay="1.00" arrival="258.00" arrivalLane="2o_0" arrivalPos="492.80" arrivalSpeed="9.53" duration="87.00" routeLength="990.53" waitingTime="0.00" waitingCount="0" stopTime="0.00" timeLoss="14.16" rerouteNo="0" devices="tripinfo_SN_170" vType="car" speedFactor="0.97" vaporized=""/>
    <tripinfo id="SN_177" depart="177.00" departLane="3i_0" departPos="4.10" departSpeed="0.00" departDelay="0.00" arrival="260.00" arrivalLane="2o_0" arrivalPos="492.80" arrivalSpeed="10.55" duration="83.00" routeLength="990.53" waitingTime="0.00" waitingCount="0" stopTime="0.00" timeLoss="11.23" rerouteNo="0" devices="tripinfo_SN_177" vType="car" speedFactor="0.99" vaporized=""/>
    <tripinfo id="NS_176" depart="177.00" departLane="2i_0" departPos="4.10" departSpeed="0.00" departDelay="1.00" arrival="262.00" arrivalLane="1o_0" arrivalPos="492.80" arrivalSpeed="10.81" duration="85.00" routeLength="995.90" waitingTime="1.00" waitingCount="1" stopTime="0.00" timeLoss="14.64" rerouteNo="0" devices="tripinfo_NS_176" vType="car" speedFactor="1.02" vaporized=""/>
    <tripinfo id="EW_178" depart="179.00" departLane="4i_0" departPos="4.10" departSpeed="0.00" departDelay="1.00" arrival="269.00" arrivalLane="3o_0" arrivalPos="492.80" arrivalSpeed="9.53" duration="90.00" routeLength="995.90" waitingTime="2.00" waitingCount="1" stopTime="0.00" timeLoss="14.09" rerouteNo="0" devices="tripinfo_EW_178" vType="car" speedFactor="0.94" vaporized=""/>
    <tripinfo id="NS_184" depart="184.00" departLane="2i_0" departPos="4.10" departSpeed="0.00" departDelay="0.00" arrival="276.00" arrivalLane="1o_0" arrivalPos="492.80" arrivalSpeed="9.95" duration="92.00" routeLength="995.90" waitingTime="0.00" waitingCount="0" stopTime="0.00" timeLoss="14.37" rerouteNo="0" devices="tripinfo_NS_184" vType="car" speedFactor="0.91" vaporized=""/>
    <tripinfo id="WE_180" depart="180.00" departLane="1i_0" departPos="4.10" departSpeed="0.00" departDelay="0.00" arrival="277.00" arrivalLane="3o_0" arrivalPos="492.80" arrivalSpeed="8.59" duration="97.00" routeLength="990.53" waitingTime="4.00" waitingCount="1" stopTime="0.00" timeLoss="17.17" rerouteNo="0" devices="tripinfo_WE_180" vType="car" speedFactor="0.88" vaporized=""/>
    <tripinfo id="NS_187" depart="187.00" departLane="2i_0" departPos="4.10" departSpeed="0.00" departDelay="0.00" arrival="278.00" arrivalLane="1o_0" arrivalPos="492.80" arrivalSpeed="11.32" duration="91.00" routeLength="995.90" waitingTime="1.00" waitingCount="1" stopTime="0.00" timeLoss="21.67" rerouteNo="0" devices="tripinfo_NS_187" vType="car" speedFactor="1.02" vaporized=""/>
    <tripinfo id="EW_190" depart="193.00" departLane="4i_0" departPos="4.10" departSpeed="0.00" departDelay="3.00" arrival="279.00" arrivalLane="3o_0" arrivalPos="492.80" arrivalSpeed="10.86" duration="86.00" routeLength="995.90" waitingTime="0.00" waitingCount="0" stopTime="0.00" timeLoss="16.31" rerouteNo="0" devices="tripinfo_EW_190" vType="car" speedFactor="1.02" vaporized=""/>
    <tripinfo id="EW_201" depart="201.00" departLane="4i_0" departPos="4.10" departSpeed="0.00" departDelay="0.00" arrival="282.00" arrivalLane="1o_0" arrivalPos="492.80" arrivalSpeed="10.24" duration="81.00" routeLength="990.53" waitingTime="0.00" waitingCount="0" stopTime="0.00" timeLoss="9.15" rerouteNo="0" devices="tripinfo_EW_201" vType="car" speedFactor="0.98" vaporized=""/>
    <tripinfo id="WE_184" depart="184.00" departLane="1i_0" departPos="4.10" departSpeed="0.00" departDelay="0.00" arrival="284.00" arrivalLane="3o_0" arrivalPos="492.80" arrivalSpeed="9.44" duration="100.00" routeLength="990.53" waitingTime="4.00" waitingCount="2" stopTime="0.00" timeLoss="21.78" rerouteNo="0" devices="tripinfo_WE_184" vType="car" speedFactor="0.91" vaporized=""/>
    <tripinfo id="WE_186" depart="186.00" departLane="1i_0" departPos="4.10" departSpeed="0.00" departDelay="0.00" arrival="285.00" arrivalLane="3o_0" arrivalPos="492.80" arrivalSpeed="11.51" duration="99.00" routeLength="990.53" waitingTime="5.00" waitingCount="3" stopTime="0.00" timeLoss="31.35" rerouteNo="0" devices="tripinfo_WE_186" vType="car" speedFactor="1.04" vaporized=""/>
    <tripinfo id="NS_191" depart="191.00" departLane="2i_0" departPos="10.10" departSpeed="0.00" departDelay="0.00" arrival="288.00" arrivalLane="4o_0" arrivalPos="492.80" arrivalSpeed="10.55" duration="97.00" routeLength="984.53" waitingTime="1.00" waitingCount="1" stopTime="0.00" timeLoss="26.15" rerouteNo="0" devices="tripinfo_NS_191" vType="truck" speedFactor="0.99" vaporized=""/>
    <tripinfo id="SN_197" depart="198.00" departLane="3i_0" departPos="10.10" departSpeed="0.00" departDelay="1.00" arrival="290.00" arrivalLane="1o_0" arrivalPos="492.80" arrivalSpeed="11.00" duration="92.00" routeLength="989.70" waitingTime="1.00" waitingCount="1" stopTime="0.00" timeLoss="20.38" rerouteNo="0" devices="tripinfo_SN_197" vType="truck" speedFactor="0.99" vaporized=""/>
    <tripinfo id="SN_200" depart="202.00" departLane="3i_0" departPos="4.10" departSpeed="0.00" departDelay="2.00" arrival="291.00" arrivalLane="4o_0" arrivalPos="492.80" arrivalSpeed="10.52" duration="89.00" routeLength="995.90" waitingTime="0.00" waitingCount="0" stopTime="0.00" timeLoss="19.91" rerouteNo="0" devices="tripinfo_SN_200" vType="car" speedFactor="1.03" vaporized=""/>
    <tripinfo id="WE_194" depart="194.00" departLane="1i_0" departPos="4.10" departSpeed="0.00" departDelay="0.00" arrival="295.00" arrivalLane="4o_0" arrivalPos="492.80" arrivalSpeed="11.15" duration="101.00" routeLength="995.70" waitingTime="6.00" waitingCount="3" stopTime="0.00" timeLoss="33.85" rerouteNo="0" devices="tripinfo_WE_194" vType="car" speedFactor="1.06" vaporized=""/>