<?xml version="1.0" encoding="UTF-8"?>

<!-- generated on 2024-05-04 20:11:53 by Eclipse SUMO sumo Version 1.19.0
<configuration xmlns:xsi="http://www.w3.org/2001/XMLSchema-instance" xsi:noNamespaceSchemaLocation="http://sumo.dlr.de/xsd/sumoConfiguration.xsd">

    <input>
        <net-file value="test5.net.xml"/>
        <route-files value="route_gen.rou.xml"/>
    </input>

    <output>
        <tripinfo-output value="tripinfo_epi745.xml"/>
    </output>

    <report>
        <no-warnings value="true"/>
    </report>

    <traci_server>
        <remote-port value="59041"/>
    </traci_server>

</configuration>
-->

<tripinfos xmlns:xsi="http://www.w3.org/2001/XMLSchema-instance" xsi:noNamespaceSchemaLocation="http://sumo.dlr.de/xsd/tripinfo_file.xsd">
    <tripinfo id="SN_9" depart="9.00" departLane="3i_0" departPos="4.10" departSpeed="0.00" departDelay="0.00" arrival="86.00" arrivalLane="2o_0" arrivalPos="492.80" arrivalSpeed="10.94" duration="77.00" routeLength="990.53" waitingTime="0.00" waitingCount="0" stopTime="0.00" timeLoss="7.18" rerouteNo="0" devices="tripinfo_SN_9" vType="car" speedFactor="1.01" vaporized=""/>
    <tripinfo id="WE_9" depart="9.00" departLane="1i_0" departPos="4.10" departSpeed="0.00" departDelay="0.00" arrival="89.00" arrivalLane="2o_0" arrivalPos="492.80" arrivalSpeed="10.95" duration="80.00" routeLength="995.90" waitingTime="2.00" waitingCount="1" stopTime="0.00" timeLoss="12.64" rerouteNo="0" devices="tripinfo_WE_9" vType="car" speedFactor="1.06" vaporized=""/>
    <tripinfo id="EW_9" depart="9.00" departLane="4i_0" departPos="4.10" departSpeed="0.00" departDelay="0.00" arrival="98.00" arrivalLane="2o_0" arrivalPos="492.80" arrivalSpeed="9.90" duration="89.00" routeLength="995.70" waitingTime="1.00" waitingCount="1" stopTime="0.00" timeLoss="13.06" rerouteNo="0" devices="tripinfo_EW_9" vType="car" speedFactor="0.94" vaporized=""/>
    <tripinfo id="EW_21" depart="21.00" departLane="4i_0" departPos="10.10" departSpeed="0.00" departDelay="0.00" arrival="102.00" arrivalLane="1o_0" arrivalPos="492.80" arrivalSpeed="11.54" duration="81.00" routeLength="984.53" waitingTime="0.00" waitingCount="0" stopTime="0.00" timeLoss="12.85" rerouteNo="0" devices="tripinfo_EW_21" vType="truck" speedFactor="1.04" vaporized=""/>
    <tripinfo id="SN_22" depart="22.00" departLane="3i_0" departPos="4.10" departSpeed="0.00" departDelay="0.00" arrival="103.00" arrivalLane="4o_0" arrivalPos="492.80" arrivalSpeed="10.44" duration="81.00" routeLength="995.90" waitingTime="1.00" waitingCount="1" stopTime="0.00" timeLoss="11.93" rerouteNo="0" devices="tripinfo_SN_22" vType="car" speedFactor="1.03" vaporized=""/>
    <tripinfo id="SN_26" depart="26.00" departLane="3i_0" departPos="4.10" departSpeed="0.00" departDelay="0.00" arrival="106.00" arrivalLane="1o_0" arrivalPos="492.80" arrivalSpeed="10.46" duration="80.00" routeLength="995.70" waitingTime="0.00" waitingCount="0" stopTime="0.00" timeLoss="12.19" rerouteNo="0" devices="tripinfo_SN_26" vType="car" speedFactor="1.05" vaporized=""/>
    <tripinfo id="EW_40" depart="40.00" departLane="4i_0" departPos="4.10" departSpeed="0.00" departDelay="0.00" arrival="118.00" arrivalLane="1o_0" arrivalPos="492.80" arrivalSpeed="11.34" duration="78.00" routeLength="990.53" waitingTime="0.00" waitingCount="0" stopTime="0.00" timeLoss="8.50" rerouteNo="0" devices="tripinfo_EW_40" vType="car" speedFactor="1.03" vaporized=""/>
    <tripinfo id="WE_27" depart="28.00" departLane="1i_0" departPos="4.10" departSpeed="0.00" departDelay="1.00" arrival="119.00" arrivalLane="2o_0" arrivalPos="492.80" arrivalSpeed="9.19" duration="91.00" routeLength="995.90" waitingTime="0.00" waitingCount="0" stopTime="0.00" timeLoss="10.98" rerouteNo="0" devices="tripinfo_WE_27" vType="car" speedFactor="0.89" vaporized=""/>
    <tripinfo id="WE_30" depart="31.00" departLane="1i_0" departPos="4.10" departSpeed="0.00" departDelay="1.00" arrival="121.00" arrivalLane="2o_0" arrivalPos="492.80" arrivalSpeed="9.31" duration="90.00" routeLength="995.90" waitingTime="0.00" waitingCount="0" stopTime="0.00" timeLoss="14.26" rerouteNo="0" devices="tripinfo_WE_30" vType="car" speedFactor="0.94" vaporized=""/>
    <tripinfo id="WE_26" depart="26.00" departLane="1i_0" departPos="4.10" departSpeed="0.00" departDelay="0.00" arrival="122.00" arrivalLane="4o_0" arrivalPos="492.80" arrivalSpeed="8.86" duration="96.00" routeLength="995.70" waitingTime="0.00" waitingCount="0" stopTime="0.00" timeLoss="10.65" rerouteNo="0" devices="tripinfo_WE_26" vType="car" speedFactor="0.83" vaporized=""/>
    <tripinfo id="NS_38" depart="38.00" departLane="2i_0" departPos="4.10" departSpeed="0.00" departDelay="0.00" arrival="124.00" arrivalLane="4o_0" arrivalPos="492.80" arrivalSpeed="11.49" duration="86.00" routeLength="990.53" waitingTime="0.00" waitingCount="0" stopTime="0.00" timeLoss="20.88" rerouteNo="0" devices="tripinfo_NS_38" vType="car" speedFactor="1.09" vaporized=""/>
    <tripinfo id="EW_34" depart="34.00" departLane="4i_0" departPos="4.10" departSpeed="0.00" departDelay="0.00" arrival="126.00" arrivalLane="3o_0" arrivalPos="492.80" arrivalSpeed="8.96" duration="92.00" routeLength="995.90" waitingTime="0.00" waitingCount="0" stopTime="0.00" timeLoss="9.40" rerouteNo="0" devices="tripinfo_EW_34" vType="car" speedFactor="0.86" vaporized=""/>
    <tripinfo id="WE_46" depart="46.00" departLane="1i_0" departPos="4.10" departSpeed="0.00" departDelay="0.00" arrival="126.00" arrivalLane="4o_0" arrivalPos="492.80" arrivalSpeed="11.40" duration="80.00" routeLength="995.70" waitingTime="0.00" waitingCount="0" stopTime="0.00" timeLoss="16.26" rerouteNo="0" devices="tripinfo_WE_46" vType="car" speedFactor="1.12" vaporized=""/>
    <tripinfo id="WE_41" depart="41.00" departLane="1i_0" departPos="4.10" departSpeed="0.00" departDelay="0.00" arrival="128.00" arrivalLane="3o_0" arrivalPos="492.80" arrivalSpeed="11.03" duration="87.00" routeLength="990.53" waitingTime="0.00" waitingCount="0" stopTime="0.00" timeLoss="19.09" rerouteNo="0" devices="tripinfo_WE_41" vType="car" speedFactor="1.05" vaporized=""/>
    <tripinfo id="EW_52" depart="52.00" departLane="4i_0" departPos="4.10" departSpeed="0.00" departDelay="0.00" arrival="137.00" arrivalLane="3o_0" arrivalPos="492.80" arrivalSpeed="9.60" duration="85.00" routeLength="995.90" waitingTime="0.00" waitingCount="0" stopTime="0.00" timeLoss="8.54" rerouteNo="0" devices="tripinfo_EW_52" vType="car" speedFactor="0.93" vaporized=""/>
    <tripinfo id="WE_52" depart="52.00" departLane="1i_0" departPos="4.10" departSpeed="0.00" departDelay="0.00" arrival="138.00" arrivalLane="2o_0" arrivalPos="492.80" arrivalSpeed="10.35" duration="86.00" routeLength="995.90" waitingTime="1.00" waitingCount="1" stopTime="0.00" timeLoss="14.21" rerouteNo="0" devices="tripinfo_WE_52" vType="car" speedFactor="0.99" vaporized=""/>
    <tripinfo id="NS_55" depart="55.00" departLane="2i_0" departPos="4.10" departSpeed="0.00" departDelay="0.00" arrival="149.00" arrivalLane="1o_0" arrivalPos="492.80" arrivalSpeed="9.05" duration="94.00" routeLength="995.90" waitingTime="1.00" waitingCount="1" stopTime="0.00" timeLoss="13.22" rerouteNo="0" devices="tripinfo_NS_55" vType="car" speedFactor="0.88" vaporized=""/>
    <tripinfo id="WE_57" depart="57.00" departLane="1i_0" departPos="4.10" departSpeed="0.00" departDelay="0.00" arrival="150.00" arrivalLane="4o_0" arrivalPos="492.80" arrivalSpeed="9.41" duration="93.00" routeLength="995.70" waitingTime="1.00" waitingCount="1" stopTime="0.00" timeLoss="16.77" rerouteNo="0" devices="tripinfo_WE_57" vType="car" speedFactor="0.94" vaporized=""/>
    <tripinfo id="SN_56" depart="56.00" departLane="3i_0" departPos="10.10" departSpeed="0.00" departDelay="0.00" arrival="152.00" arrivalLane="4o_0" arrivalPos="492.80" arrivalSpeed="10.24" duration="96.00" routeLength="989.90" waitingTime="2.00" waitingCount="1" stopTime="0.00" timeLoss="23.32" rerouteNo="0" devices="tripinfo_SN_56" vType="truck" speedFactor="0.97" vaporized=""/>
    <tripinfo id="EW_60" depart="60.00" departLane="4i_0" departPos="10.10" departSpeed="0.00" departDelay="0.00" arrival="153.00" arrivalLane="2o_0" arrivalPos="492.80" arrivalSpeed="11.70" duration="93.00" routeLength="989.70" waitingTime="5.00" waitingCount="1" stopTime="0.00" timeLoss="26.47" rerouteNo="0" devices="tripinfo_EW_60" vType="truck" speedFactor="1.08" vaporized=""/>
    <tripinfo id="EW_64" depart="64.00" departLane="4i_0" departPos="4.10" departSpeed="0.00" departDelay="0.00" arrival="160.00" arrivalLane="2o_0" arrivalPos="492.80" arrivalSpeed="10.39" duration="96.00" routeLength="995.70" waitingTime="4.00" waitingCount="1" stopTime="0.00" timeLoss="26.52" rerouteNo="0" devices="tripinfo_EW_64" vType="car" speedFactor="1.02" vaporized=""/>
    <tripinfo id="WE_76" depart="76.00" departLane="1i_0" departPos="4.10" departSpeed="0.00" departDelay="0.00" arrival="164.00" arrivalLane="3o_0" arrivalPos="492.80" arrivalSpeed="9.17" duration="88.00" routeLength="990.53" waitingTime="0.00" waitingCount="0" stopTime="0.00" timeLoss="8.86" rerouteNo="0" devices="tripinfo_WE_76" vType="car" speedFactor="0.89" vaporized=""/>
    <tripinfo id="EW_71" depart="71.00" departLane="4i_0" departPos="4.10" departSpeed="0.00" departDelay="0.00" arrival="169.00" arrivalLane="3o_0" arrivalPos="492.80" arrivalSpeed="10.00" duration="98.00" routeLength="995.90" waitingTime="1.00" waitingCount="1" stopTime="0.00" timeLoss="24.79" rerouteNo="0" devices="tripinfo_EW_71" vType="car" speedFactor="0.97" vaporized=""/>
    <tripinfo id="SN_77" depart="77.00" departLane="3i_0" departPos="4.10" departSpeed="0.00" departDelay="0.00" arrival="173.00" arrivalLane="2o_0" arrivalPos="492.80" arrivalSpeed="8.29" duration="96.00" routeLength="990.53" waitingTime="0.00" waitingCount="0" stopTime="0.00" timeLoss="10.74" rerouteNo="0" devices="tripinfo_SN_77" vType="car" speedFactor="0.83" vaporized=""/>
    <tripinfo id="EW_65" depart="67.00" departLane="4i_0" departPos="4.10" departSpeed="0.00" departDelay="2.00" arrival="175.00" arrivalLane="2o_0" arrivalPos="492.80" arrivalSpeed="10.25" duration="108.00" routeLength="995.70" waitingTime="3.00" waitingCount="1" stopTime="0.00" timeLoss="37.60" rerouteNo="0" devices="tripinfo_EW_65" vType="car" speedFactor="1.01" vaporized=""/>
    <tripinfo id="WE_85" depart="85.00" departLane="1i_0" departPos="10.10" departSpeed="0.00" departDelay="0.00" arrival="177.00" arrivalLane="2o_0" arrivalPos="492.80" arrivalSpeed="9.85" duration="92.00" routeLength="989.90" waitingTime="0.00" waitingCount="0" stopTime="0.00" timeLoss="16.72" rerouteNo="0" devices="tripinfo_WE_85" vType="truck" speedFactor="0.94" vaporized=""/>
    <tripinfo id="SN_102" depart="102.00" departLane="3i_0" departPos="4.10" departSpeed="0.00" departDelay="0.00" arrival="179.00" arrivalLane="2o_0" arrivalPos="492.80" arrivalSpeed="12.29" duration="77.00" routeLength="990.53" waitingTime="0.00" waitingCount="0" stopTime="0.00" timeLoss="14.93" rerouteNo="0" devices="tripinfo_SN_102" vType="car" speedFactor="1.13" vaporized=""/>
    <tripinfo id="EW_98" depart="98.00" departLane="4i_0" departPos="4.10" departSpeed="0.00" departDelay="0.00" arrival="182.00" arrivalLane="3o_0" arrivalPos="492.80" arrivalSpeed="9.43" duration="84.00" routeLength="995.90" waitingTime="0.00" waitingCount="0" stopTime="0.00" timeLoss="8.87" rerouteNo="0" devices="tripinfo_EW_98" vType="car" speedFactor="0.95" vaporized=""/>
    <tripinfo id="WE_106" depart="106.00" departLane="1i_0" departPos="4.10" departSpeed="0.00" departDelay="0.00" arrival="183.00" arrivalLane="3o_0" arrivalPos="492.80" arrivalSpeed="11.85" duration="77.00" routeLength="990.53" waitingTime="0.00" waitingCount="0" stopTime="0.00" timeLoss="17.22" rerouteNo="0" devices="tripinfo_WE_106" vType="car" speedFactor="1.18" vaporized=""/>
    <tripinfo id="NS_96" depart="98.00" departLane="2i_0" departPos="4.10" departSpeed="0.00" departDelay="2.00" arrival="184.00" arrivalLane="4o_0" arrivalPos="492.80" arrivalSpeed="9.63" duration="86.00" routeLength="990.53" waitingTime="0.00" waitingCount="0" stopTime="0.00" timeLoss="9.40" rerouteNo="0" devices="tripinfo_NS_96" vType="car" speedFactor="0.92" vaporized=""/>
    <tripinfo id="SN_108" depart="108.00" departLane="3i_0" departPos="4.10" departSpeed="0.00" departDelay="0.00" arrival="186.00" arrivalLane="4o_0" arrivalPos="492.80" arrivalSpeed="12.26" duration="78.00" routeLength="995.90" waitingTime="0.00" waitingCount="0" stopTime="0.00" timeLoss="16.40" rerouteNo="0" devices="tripinfo_SN_108" vType="car" speedFactor="1.15" vaporized=""/>
    <tripinfo id="EW_112" depart="112.00" departLane="4i_0" departPos="4.10" departSpeed="0.00" departDelay="0.00" arrival="187.00" arrivalLane="2o_0" arrivalPos="492.80" arrivalSpeed="11.98" duration="75.00" routeLength="995.70" waitingTime="0.00" waitingCount="0" stopTime="0.00" timeLoss="13.93" rerouteNo="0" devices="tripinfo_EW_112" vType="car" speedFactor="1.17" vaporized=""/>
    <tripinfo id="NS_105" depart="105.00" departLane="2i_0" departPos="4.10" departSpeed="0.00" departDelay="0.00" arrival="194.00" arrivalLane="1o_0" arrivalPos="492.80" arrivalSpeed="10.06" duration="89.00" routeLength="995.90" waitingTime="2.00" waitingCount="1" stopTime="0.00" timeLoss="12.24" rerouteNo="0" devices="tripinfo_NS_105" vType="car" speedFactor="0.93" vaporized=""/>
    <tripinfo id="NS_112" depart="112.00" departLane="2i_0" departPos="4.10" departSpeed="0.00" departDelay="0.00" arrival="197.00" arrivalLane="1o_0" arrivalPos="492.80" arrivalSpeed="10.86" duration="85.00" routeLength="995.90" waitingTime="1.00" waitingCount="1" stopTime="0.00" timeLoss="13.64" rerouteNo="0" devices="tripinfo_NS_112" vType="car" speedFactor="0.99" vaporized=""/>
    <tripinfo id="NS_119" depart="119.00" departLane="2i_0" departPos="4.10" departSpeed="0.00" departDelay="0.00" arrival="198.00" arrivalLane="3o_0" arrivalPos="492.80" arrivalSpeed="11.72" duration="79.00" routeLength="995.70" waitingTime="1.00" waitingCount="1" stopTime="0.00" timeLoss="14.23" rerouteNo="0" devices="tripinfo_NS_119" vType="car" speedFactor="1.10" vaporized=""/>
    <tripinfo id="WE_109" depart="109.00" departLane="1i_0" departPos="4.10" departSpeed="0.00" departDelay="0.00" arrival="201.00" arrivalLane="4o_0" arrivalPos="492.80" arrivalSpeed="11.03" duration="92.00" routeLength="995.70" waitingTime="6.00" waitingCount="2" stopTime="0.00" timeLoss="21.70" rerouteNo="0" devices="tripinfo_WE_109" vType="car" speedFactor="1.01" vaporized=""/>
    <tripinfo id="EW_116" depart="116.00" departLane="4i_0" departPos="4.10" departSpeed="0.00" departDelay="0.00" arrival="201.00" arrivalLane="2o_0" arrivalPos="492.80" arrivalSpeed="10.17" duration="85.00" routeLength="995.70" waitingTime="0.00" waitingCount="0" stopTime="0.00" timeLoss="11.73" rerouteNo="0" devices="tripinfo_EW_116" vType="car" speedFactor="0.97" vaporized=""/>
    <tripinfo id="SN_118" depart="118.00" departLane="3i_0" departPos="4.10" departSpeed="0.00" departDelay="0.00" arrival="202.00" arrivalLane="2o_0" arrivalPos="492.80" arrivalSpeed="12.56" duration="84.00" routeLength="990.53" waitingTime="6.00" waitingCount="1" stopTime="0.00" timeLoss="24.42" rerouteNo="0" devices="tripinfo_SN_118" vType="car" speedFactor="1.18" vaporized=""/>
    <tripinfo id="SN_113" depart="113.00" departLane="3i_0" departPos="4.10" departSpeed="0.00" departDelay="0.00" arrival="205.00" arrivalLane="1o_0" arrivalPos="492.80" arrivalSpeed="10.05" duration="92.00" routeLength="995.70" waitingTime="8.00" waitingCount="1" stopTime="0.00" timeLoss="22.25" rerouteNo="0" devices="tripinfo_SN_113" vType="car" speedFactor="1.02" vaporized=""/>
    <tripinfo id="NS_125" depart="125.00" departLane="2i_0" departPos="4.10" departSpeed="0.00" departDelay="0.00" arrival="207.00" arrivalLane="1o_0" arrivalPos="492.80" arrivalSpeed="11.42" duration="82.00" routeLength="995.90" waitingTime="0.00" waitingCount="0" stopTime="0.00" timeLoss="12.70" rerouteNo="0" devices="tripinfo_NS_125" vType="car" speedFactor="1.03" vaporized=""/>
    <tripinfo id="WE_132" depart="132.00" departLane="1i_0" departPos="4.10" departSpeed="0.00" departDelay="0.00" arrival="207.00" arrivalLane="2o_0" arrivalPos="492.80" arrivalSpeed="11.55" duration="75.00" routeLength="995.90" waitingTime="0.00" waitingCount="0" stopTime="0.00" timeLoss="9.64" rerouteNo="0" devices="tripinfo_WE_132" vType="car" speedFactor="1.09" vaporized=""/>
    <tripinfo id="WE_124" depart="124.00" departLane="1i_0" departPos="4.10" departSpeed="0.00" departDelay="0.00" arrival="212.00" arrivalLane="3o_0" arrivalPos="492.80" arrivalSpeed="9.87" duration="88.00" routeLength="990.53" waitingTime="0.00" waitingCount="0" stopTime="0.00" timeLoss="9.23" rerouteNo="0" devices="tripinfo_WE_124" vType="car" speedFactor="0.90" vaporized=""/>
    <tripinfo id="EW_126" depart="126.00" departLane="4i_0" departPos="4.10" departSpeed="0.00" departDelay="0.00" arrival="212.00" arrivalLane="1o_0" arrivalPos="492.80" arrivalSpeed="10.25" duration="86.00" routeLength="990.53" waitingTime="0.00" waitingCount="0" stopTime="0.00" timeLoss="12.53" rerouteNo="0" devices="tripinfo_EW_126" vType="car" speedFactor="0.96" vaporized=""/>
    <tripinfo id="NS_139" depart="139.00" departLane="2i_0" departPos="4.10" departSpeed="0.00" departDelay="0.00" arrival="215.00" arrivalLane="1o_0" arrivalPos="492.80" arrivalSpeed="10.37" duration="76.00" routeLength="995.90" waitingTime="0.00" waitingCount="0" stopTime="0.00" timeLoss="7.49" rerouteNo="0" devices="tripinfo_NS_139" vType="car" speedFactor="1.04" vaporized=""/>
    <tripinfo id="EW_138" depart="138.00" departLane="4i_0" departPos="4.10" departSpeed="0.00" departDelay="0.00" arrival="219.00" arrivalLane="1o_0" arrivalPos="492.80" arrivalSpeed="10.95" duration="81.00" routeLength="990.53" waitingTime="2.00" waitingCount="1" stopTime="0.00" timeLoss="12.40" rerouteNo="0" devices="tripinfo_EW_138" vType="car" speedFactor="1.04" vaporized=""/>
    <tripinfo id="SN_140" depart="140.00" departLane="3i_0" departPos="4.10" departSpeed="0.00" departDelay="0.00" arrival="220.00" arrivalLane="1o_0" arrivalPos="492.80" arrivalSpeed="12.00" duration="80.00" routeLength="995.70" waitingTime="0.00" waitingCount="0" stopTime="0.00" timeLoss="14.82" rerouteNo="0" devices="tripinfo_SN_140" vType="car" speedFactor="1.09" vaporized=""/>
    <tripinfo id="SN_141" depart="144.00" departLane="3i_0" departPos="10.10" departSpeed="0.00" departDelay="3.00" arrival="228.00" arrivalLane="4o_0" arrivalPos="492.80" arrivalSpeed="10.65" duration="84.00" routeLength="989.90" waitingTime="0.00" waitingCount="0" stopTime="0.00" timeLoss="12.92" rerouteNo="0" devices="tripinfo_SN_141" vType="truck" speedFactor="1.00" vaporized=""/>
    <tripinfo id="WE_153" depart="153.00" departLane="1i_0" departPos="4.10" departSpeed="0.00" departDelay="0.00" arrival="230.00" arrivalLane="4o_0" arrivalPos="492.80" arrivalSpeed="11.95" duration="77.00" routeLength="995.70" waitingTime="0.00" waitingCount="0" stopTime="0.00" timeLoss="16.10" rerouteNo="0" devices="tripinfo_WE_153" vType="car" speedFactor="1.17" vaporized=""/>
    <tripinfo id="NS_144" depart="144.00" departLane="2i_0" departPos="4.10" departSpeed="0.00" departDelay="0.00" arrival="234.00" arrivalLane="1o_0" arrivalPos="492.80" arrivalSpeed="8.75" duration="90.00" routeLength="995.90" waitingTime="0.00" waitingCount="0" stopTime="0.00" timeLoss="8.90" rerouteNo="0" devices="tripinfo_NS_144" vType="car" speedFactor="0.88" vaporized=""/>
    <tripinfo id="NS_155" depart="155.00" departLane="2i_0" departPos="4.10" departSpeed="0.00" departDelay="0.00" arrival="236.00" arrivalLane="3o_0" arrivalPos="492.80" arrivalSpeed="10.15" duration="81.00" routeLength="995.70" waitingTime="0.00" waitingCount="0" stopTime="0.00" timeLoss="11.18" rerouteNo="0" devices="tripinfo_NS_155" vType="car" speedFactor="1.02" vaporized=""/>
    <tripinfo id="SN_143" depart="148.00" departLane="3i_0" departPos="4.10" departSpeed="0.00" departDelay="5.00" arrival="238.00" arrivalLane="2o_0" arrivalPos="492.80" arrivalSpeed="9.05" duration="90.00" routeLength="990.53" waitingTime="0.00" waitingCount="0" stopTime="0.00" timeLoss="11.01" rerouteNo="0" devices="tripinfo_SN_143" vType="car" speedFactor="0.90" vaporized=""/>
    <tripinfo id="EW_156" depart="156.00" departLane="4i_0" departPos="4.10" departSpeed="0.00" departDelay="0.00" arrival="238.00" arrivalLane="1o_0" arrivalPos="492.80" arrivalSpeed="10.29" duration="82.00" routeLength="990.53" waitingTime="1.00" waitingCount="1" stopTime="0.00" timeLoss="11.54" rerouteNo="0" devices="tripinfo_EW_156" vType="car" speedFactor="1.00" vaporized=""/>
    <tripinfo id="NS_149" depart="149.00" departLane="2i_0" departPos="4.10" departSpeed="0.00" departDelay="0.00" arrival="242.00" arrivalLane="4o_0" arrivalPos="492.80" arrivalSpeed="8.64" duration="93.00" routeLength="990.53" waitingTime="0.00" waitingCount="0" stopTime="0.00" timeLoss="10.25" rerouteNo="0" devices="tripinfo_NS_149" vType="car" speedFactor="0.85" vaporized=""/>
    <tripinfo id="SN_155" depart="156.00" departLane="3i_0" departPos="4.10" departSpeed="0.00" departDelay="1.00" arrival="244.00" arrivalLane="4o_0" arrivalPos="492.80" arrivalSpeed="11.09" duration="88.00" routeLength="995.90" waitingTime="0.00" waitingCount="0" stopTime="0.00" timeLoss="22.95" rerouteNo="0" devices="tripinfo_SN_155" vType="car" speedFactor="1.10" vaporized=""/>
    <tripinfo id="SN_151" depart="152.00" departLane="3i_0" departPos="10.10" departSpeed="0.00" departDelay="1.00" arrival="246.00" arrivalLane="2o_0" arrivalPos="492.80" arrivalSpeed="9.77" duration="94.00" routeLength="984.53" waitingTime="1.00" waitingCount="1" stopTime="0.00" timeLoss="17.91" rerouteNo="0" devices="tripinfo_SN_151" vType="truck" speedFactor="0.93" vaporized=""/>
    <tripinfo id="EW_159" depart="159.00" departLane="4i_0" departPos="4.10" departSpeed="0.00" departDelay="0.00" arrival="252.00" arrivalLane="2o_0" arrivalPos="492.80" arrivalSpeed="10.01" duration="93.00" routeLength="995.70" waitingTime="7.00" waitingCount="1" stopTime="0.00" timeLoss="21.50" rerouteNo="0" devices="tripinfo_EW_159" vType="car" speedFactor="1.00" vaporized=""/>
    <tripinfo id="WE_163" depart="163.00" departLane="1i_0" departPos="4.10" departSpeed="0.00" departDelay="0.00" arrival="253.00" arrivalLane="4o_0" arrivalPos="492.80" arrivalSpeed="8.70" duration="90.00" routeLength="995.70" waitingTime="0.00" waitingCount="0" stopTime="0.00" timeLoss="11.18" rerouteNo="0" devices="tripinfo_WE_163" vType="car" speedFactor="0.90" vaporized=""/>
    <tripinfo id="WE_171" depart="171.00" departLane="1i_0" departPos="4.10" departSpeed="0.00" departDelay="0.00" arrival="256.00" arrivalLane="4o_0" arrivalPos="492.80" arrivalSpeed="9.72" duration="85.00" routeLength="995.70" waitingTime="0.00" waitingCount="0" stopTime="0.00" timeLoss="11.35" rerouteNo="0" devices="tripinfo_WE_171" vType="car" speedFactor="0.97" vaporized=""/>
    <tripinfo id="WE_174" depart="174.00" departLane="1i_0" departPos="4.10" departSpeed="0.00" departDelay="0.00" arrival="257.00" arrivalLane="4o_0" arrivalPos="492.80" arrivalSpeed="11.87" duration="83.00" routeLength="995.70" waitingTime="0.00" waitingCount="0" stopTime="0.00" timeLoss="17.58" rerouteNo="0" devices="tripinfo_WE_174" vType="car" speedFactor="1.08" vaporized=""/>
    <tripinfo id="SN_163" depart="164.00" departLane="3i_0" departPos="4.10" departSpeed="0.00" departDelay="1.00" arrival="259.00" arrivalLane="4o_0" arrivalPos="492.80" arrivalSpeed="11.53" duration="95.00" routeLength="995.90" waitingTime="7.00" waitingCount="1" stopTime="0.00" timeLoss="32.90" rerouteNo="0" devices="tripinfo_SN_163" vType="car" speedFactor="1.14" vaporized=""/>
    <tripinfo id="WE_177" depart="180.00" departLane="1i_0" departPos="4.10" departSpeed="0.00" departDelay="3.00" arrival="260.00" arrivalLane="3o_0" arrivalPos="492.80" arrivalSpeed="10.93" duration="80.00" routeLength="990.53" waitingTime="0.00" waitingCount="0" stopTime="0.00" timeLoss="10.80" rerouteNo="0" devices="tripinfo_WE_177" vType="car" speedFactor="1.02" vaporized=""/>
    <tripinfo id="WE_175" depart="177.00" departLane="1i_0" departPos="4.10" departSpeed="0.00" departDelay="2.00" arrival="261.00" arrivalLane="4o_0" arrivalPos="492.80" arrivalSpeed="11.27" duration="84.00" routeLength="995.70" waitingTime="0.00" waitingCount="0" stopTime="0.00" timeLoss="20.52" rerouteNo="0" devices="tripinfo_WE_175" vType="car" speedFactor="1.12" vaporized=""/>
    <tripinfo id="EW_169" depart="169.00" departLane="4i_0" departPos="4.10" departSpeed="0.00" departDelay="0.00" arrival="262.00" arrivalLane="2o_0" arrivalPos="492.80" arrivalSpeed="10.96" duration="93.00" routeLength="995.70" waitingTime="6.00" waitingCount="2" stopTime="0.00" timeLoss="24.01" rerouteNo="0" devices="tripinfo_EW_169" vType="car" speedFactor="1.02" vaporized=""/>
    <tripinfo id="EW_178" depart="178.00" departLane="4i_0" departPos="4.10" departSpeed="0.00" departDelay="0.00" arrival="266.00" arrivalLane="1o_0" arrivalPos="492.80" arrivalSpeed="10.94" duration="88.00" routeLength="990.53" waitingTime="2.00" waitingCount="1" stopTime="0.00" timeLoss="16.26" rerouteNo="0" devices="tripinfo_EW_178" vType="car" speedFactor="0.99" vaporized=""/>
    <tripinfo id="SN_182" depart="183.00" departLane="3i_0" departPos="4.10" departSpeed="0.00" departDelay="1.00" arrival="269.00" arrivalLane="2o_0" arrivalPos="492.80" arrivalSpeed="10.01" duration="86.00" routeLength="990.53" waitingTime="0.00" waitingCount="0" stopTime="0.00" timeLoss="10.16" rerouteNo="0" devices="tripinfo_SN_182" vType="car" speedFactor="0.94" vaporized=""/>
    <tripinfo id="NS_193" depart="193.00" departLane="2i_0" departPos="4.10" departSpeed="0.00" departDelay="0.00" arrival="271.00" arrivalLane="1o_0" arrivalPos="492.80" arrivalSpeed="10.10" duration="78.00" routeLength="995.90" waitingTime="0.00" waitingCount="0" stopTime="0.00" timeLoss="8.18" rerouteNo="0" devices="tripinfo_NS_193" vType="car" speedFactor="1.02" vaporized=""/>
    <tripinfo id="WE_186" depart="186.00" departLane="1i_0" departPos="10.10" departSpeed="0.00" departDelay="0.00" arrival="274.00" arrivalLane="3o_0" arrivalPos="492.80" arrivalSpeed="10.30" duration="88.00" routeLength="984.53" waitingTime="0.00" waitingCount="0" stopTime="0.00" timeLoss="13.27" rerouteNo="0" devices="tripinfo_WE_186" vType="truck" speedFactor="0.94" vaporized=""/>
    <tripinfo id="EW_193" depart="193.00" departLane="4i_0" departPos="4.10" departSpeed="0.00" departDelay="0.00" arrival="278.00" arrivalLane="1o_0" arrivalPos="492.80" arrivalSpeed="11.01" duration="85.00" routeLength="990.53" waitingTime="4.00" waitingCount="1" stopTime="0.00" timeLoss="17.11" rerouteNo="0" devices="tripinfo_EW_193" vType="car" speedFactor="1.04" vaporized=""/>
    <tripinfo id="SN_198" depart="198.00" departLane="3i_0" departPos="4.10" departSpeed="0.00" departDelay="0.00" arrival="279.00" arrivalLane="4o_0" arrivalPos="492.80" arrivalSpeed="10.31" duration="81.00" routeLength="995.90" waitingTime="0.00" waitingCount="0" stopTime="0.00" timeLoss="11.65" rerouteNo="0" devices="tripinfo_SN_198" vType="car" speedFactor="1.02" vaporized=""/>
    <tripinfo id="SN_190" depart="190.00" departLane="3i_0" departPos="4.10" departSpeed="0.00" departDelay="0.00" arrival="282.00" arrivalLane="2o_0" arrivalPos="492.80" arrivalSpeed="9.08" duration="92.00" routeLength="990.53" waitingTime="3.00" waitingCount="1" stopTime="0.00" timeLoss="15.07" rerouteNo="0" devices="tripinfo_SN_190" vType="car" speedFactor="0.91" vaporized=""/>
    <tripinfo id="EW_188" depart="188.00" departLane="4i_0" departPos="4.10" departSpeed="0.00" departDelay="0.00" arrival="283.00" arrivalLane="3o_0" arrivalPos="492.80" arrivalSpeed="8.91" duration="95.00" routeLength="995.90" waitingTime="6.00" waitingCount="1" stopTime="0.00" timeLoss="16.73" rerouteNo="0" devices="tripinfo_EW_188" vType="car" speedFactor="0.91" vaporized=""/>
    <tripinfo id="WE_215" depart="215.00" departLane="1i_0" departPos="4.10" departSpeed="0.00" departDelay="0.00" arrival="291.00" arrivalLane="3o_0" arrivalPos="492.80" arrivalSpeed="11.37" duration="76.00" routeLength="990.53" waitingTime="0.00" waitingCount="0" stopTime="0.00" timeLoss="9.14" rerouteNo="0" devices="tripinfo_WE_215" vType="car" speedFactor="1.06" vaporized=""/>
    <tripinfo id="WE_211" depart="212.00" departLane="1i_0" departPos="4.10" departSpeed="0.00" departDelay="1.00" arrival="294.00" arrivalLane="2o_0" arrivalPos="492.80" arrivalSpeed="9.81" duration="82.00" routeLength="995.90" waitingTime="0.00" waitingCount="0" stopTime="0.00" timeLoss="8.64" rerouteNo="0" devices="tripinfo_WE_211" vType="car" speedFactor="0.97" vaporized=""/>
    <tripinfo id="EW_222" depart="222.00" departLane="4i_0" departPos="4.10" departSpeed="0.00" departDelay="0.00" arrival="301.00" arrivalLane="1o_0" arrivalPos="492.80" arrivalSpeed="11.25" duration="79.00" routeLength="990.53" waitingTime="0.00" waitingCount="0" stopTime="0.00" timeLoss="11.01" rerouteNo="0" devices="tripinfo_EW_222" vType="car" speedFactor="1.03" vaporized=""/>
    <tripinfo id="EW_213" depart="213.00" departLane="4i_0" departPos="4.10" departSpeed="0.00" departDelay="0.00" arrival="305.00" arrivalLane="3o_0" arrivalPos="492.80" arrivalSpeed="9.99" duration="92.00" routeLength="995.90" waitingTime="3.00" waitingCount="1" stopTime="0.00" timeLoss="16.57" rerouteNo="0" devices="tripinfo_EW_213" vType="car" speedFactor="0.94" vaporized=""/>
    <tripinfo id="WE_219" depart="220.00" departLane="1i_0" departPos="4.10" departSpeed="0.00" departDelay="1.00" arrival="309.00" arrivalLane="2o_0" arrivalPos="492.80" arrivalSpeed="10.30" duration="89.00" routeLength="995.90" waitingTime="2.00" waitingCount="1" stopTime="0.00" timeLoss="14.16" rerouteNo="0" devices="tripinfo_WE_219" vType="car" speedFactor="0.96" vaporized=""/>