<?xml version="1.0" encoding="UTF-8"?>

<!-- generated on 2024-05-04 16:58:08 by Eclipse SUMO sumo Version 1.19.0
<configuration xmlns:xsi="http://www.w3.org/2001/XMLSchema-instance" xsi:noNamespaceSchemaLocation="http://sumo.dlr.de/xsd/sumoConfiguration.xsd">

    <input>
        <net-file value="test5.net.xml"/>
        <route-files value="route_gen.rou.xml"/>
    </input>

    <output>
        <tripinfo-output value="tripinfo_epi72.xml"/>
    </output>

    <report>
        <no-warnings value="true"/>
    </report>

    <traci_server>
        <remote-port value="39357"/>
    </traci_server>

</configuration>
-->

<tripinfos xmlns:xsi="http://www.w3.org/2001/XMLSchema-instance" xsi:noNamespaceSchemaLocation="http://sumo.dlr.de/xsd/tripinfo_file.xsd">
    <tripinfo id="WE_1" depart="1.00" departLane="1i_0" departPos="4.10" departSpeed="0.00" departDelay="0.00" arrival="82.00" arrivalLane="2o_0" arrivalPos="492.80" arrivalSpeed="11.62" duration="81.00" routeLength="995.90" waitingTime="0.00" waitingCount="0" stopTime="0.00" timeLoss="14.26" rerouteNo="0" devices="tripinfo_WE_1" vType="car" speedFactor="1.06" vaporized=""/>
    <tripinfo id="SN_6" depart="6.00" departLane="3i_0" departPos="4.10" departSpeed="0.00" departDelay="0.00" arrival="88.00" arrivalLane="4o_0" arrivalPos="492.80" arrivalSpeed="11.15" duration="82.00" routeLength="995.90" waitingTime="0.00" waitingCount="0" stopTime="0.00" timeLoss="11.64" rerouteNo="0" devices="tripinfo_SN_6" vType="car" speedFactor="1.01" vaporized=""/>
    <tripinfo id="WE_10" depart="10.00" departLane="1i_0" departPos="4.10" departSpeed="0.00" departDelay="0.00" arrival="94.00" arrivalLane="4o_0" arrivalPos="492.80" arrivalSpeed="11.45" duration="84.00" routeLength="995.70" waitingTime="3.00" waitingCount="1" stopTime="0.00" timeLoss="18.48" rerouteNo="0" devices="tripinfo_WE_10" vType="car" speedFactor="1.08" vaporized=""/>
    <tripinfo id="EW_15" depart="15.00" departLane="4i_0" departPos="4.10" departSpeed="0.00" departDelay="0.00" arrival="94.00" arrivalLane="2o_0" arrivalPos="492.80" arrivalSpeed="11.05" duration="79.00" routeLength="995.70" waitingTime="0.00" waitingCount="0" stopTime="0.00" timeLoss="10.47" rerouteNo="0" devices="tripinfo_EW_15" vType="car" speedFactor="1.03" vaporized=""/>
    <tripinfo id="NS_2" depart="2.00" departLane="2i_0" departPos="10.10" departSpeed="0.00" departDelay="0.00" arrival="95.00" arrivalLane="1o_0" arrivalPos="492.80" arrivalSpeed="10.24" duration="93.00" routeLength="989.90" waitingTime="1.00" waitingCount="1" stopTime="0.00" timeLoss="20.12" rerouteNo="0" devices="tripinfo_NS_2" vType="truck" speedFactor="0.97" vaporized=""/>
    <tripinfo id="NS_34" depart="34.00" departLane="2i_0" departPos="4.10" departSpeed="0.00" departDelay="0.00" arrival="113.00" arrivalLane="4o_0" arrivalPos="492.80" arrivalSpeed="11.37" duration="79.00" routeLength="990.53" waitingTime="1.00" waitingCount="1" stopTime="0.00" timeLoss="14.39" rerouteNo="0" devices="tripinfo_NS_34" vType="car" speedFactor="1.09" vaporized=""/>
    <tripinfo id="EW_30" depart="30.00" departLane="4i_0" departPos="4.10" departSpeed="0.00" departDelay="0.00" arrival="114.00" arrivalLane="1o_0" arrivalPos="492.80" arrivalSpeed="9.15" duration="84.00" routeLength="990.53" waitingTime="0.00" waitingCount="0" stopTime="0.00" timeLoss="8.39" rerouteNo="0" devices="tripinfo_EW_30" vType="car" speedFactor="0.94" vaporized=""/>
    <tripinfo id="WE_19" depart="19.00" departLane="1i_0" departPos="4.10" departSpeed="0.00" departDelay="0.00" arrival="117.00" arrivalLane="2o_0" arrivalPos="492.80" arrivalSpeed="8.89" duration="98.00" routeLength="995.90" waitingTime="0.00" waitingCount="0" stopTime="0.00" timeLoss="12.23" rerouteNo="0" devices="tripinfo_WE_19" vType="car" speedFactor="0.83" vaporized=""/>
    <tripinfo id="WE_28" depart="28.00" departLane="1i_0" departPos="4.10" departSpeed="0.00" departDelay="0.00" arrival="118.00" arrivalLane="2o_0" arrivalPos="492.80" arrivalSpeed="10.36" duration="90.00" routeLength="995.90" waitingTime="0.00" waitingCount="0" stopTime="0.00" timeLoss="22.45" rerouteNo="0" devices="tripinfo_WE_28" vType="car" speedFactor="1.05" vaporized=""/>
    <tripinfo id="EW_35" depart="35.00" departLane="4i_0" departPos="4.10" departSpeed="0.00" departDelay="0.00" arrival="120.00" arrivalLane="2o_0" arrivalPos="492.80" arrivalSpeed="10.91" duration="85.00" routeLength="995.70" waitingTime="0.00" waitingCount="0" stopTime="0.00" timeLoss="15.85" rerouteNo="0" devices="tripinfo_EW_35" vType="car" speedFactor="1.03" vaporized=""/>
    <tripinfo id="NS_35" depart="36.00" departLane="2i_0" departPos="4.10" departSpeed="0.00" departDelay="1.00" arrival="121.00" arrivalLane="1o_0" arrivalPos="492.80" arrivalSpeed="10.80" duration="85.00" routeLength="995.90" waitingTime="1.00" waitingCount="1" stopTime="0.00" timeLoss="17.30" rerouteNo="0" devices="tripinfo_NS_35" vType="car" speedFactor="1.05" vaporized=""/>
    <tripinfo id="WE_29" depart="31.00" departLane="1i_0" departPos="4.10" departSpeed="0.00" departDelay="2.00" arrival="122.00" arrivalLane="3o_0" arrivalPos="492.80" arrivalSpeed="9.63" duration="91.00" routeLength="990.53" waitingTime="0.00" waitingCount="0" stopTime="0.00" timeLoss="11.31" rerouteNo="0" devices="tripinfo_WE_29" vType="car" speedFactor="0.89" vaporized=""/>
    <tripinfo id="SN_36" depart="36.00" departLane="3i_0" departPos="4.10" departSpeed="0.00" departDelay="0.00" arrival="122.00" arrivalLane="2o_0" arrivalPos="492.80" arrivalSpeed="11.01" duration="86.00" routeLength="990.53" waitingTime="2.00" waitingCount="1" stopTime="0.00" timeLoss="14.39" rerouteNo="0" devices="tripinfo_SN_36" vType="car" speedFactor="0.99" vaporized=""/>
    <tripinfo id="EW_42" depart="42.00" departLane="4i_0" departPos="4.10" departSpeed="0.00" departDelay="0.00" arrival="132.00" arrivalLane="3o_0" arrivalPos="492.80" arrivalSpeed="9.45" duration="90.00" routeLength="995.90" waitingTime="0.00" waitingCount="0" stopTime="0.00" timeLoss="9.24" rerouteNo="0" devices="tripinfo_EW_42" vType="car" speedFactor="0.88" vaporized=""/>
    <tripinfo id="WE_36" depart="36.00" departLane="1i_0" departPos="4.10" departSpeed="0.00" departDelay="0.00" arrival="134.00" arrivalLane="3o_0" arrivalPos="492.80" arrivalSpeed="12.26" duration="98.00" routeLength="990.53" waitingTime="0.00" waitingCount="0" stopTime="0.00" timeLoss="34.93" rerouteNo="0" devices="tripinfo_WE_36" vType="car" speedFactor="1.12" vaporized=""/>
    <tripinfo id="WE_32" depart="34.00" departLane="1i_0" departPos="4.10" departSpeed="0.00" departDelay="2.00" arrival="135.00" arrivalLane="4o_0" arrivalPos="492.80" arrivalSpeed="8.72" duration="101.00" routeLength="995.70" waitingTime="4.00" waitingCount="2" stopTime="0.00" timeLoss="18.27" rerouteNo="0" devices="tripinfo_WE_32" vType="car" speedFactor="0.86" vaporized=""/>
    <tripinfo id="SN_40" depart="40.00" departLane="3i_0" departPos="4.10" departSpeed="0.00" departDelay="0.00" arrival="137.00" arrivalLane="4o_0" arrivalPos="492.80" arrivalSpeed="10.24" duration="97.00" routeLength="995.90" waitingTime="6.00" waitingCount="1" stopTime="0.00" timeLoss="19.83" rerouteNo="0" devices="tripinfo_SN_40" vType="car" speedFactor="0.93" vaporized=""/>
    <tripinfo id="NS_44" depart="44.00" departLane="2i_0" departPos="4.10" departSpeed="0.00" departDelay="0.00" arrival="138.00" arrivalLane="1o_0" arrivalPos="492.80" arrivalSpeed="9.76" duration="94.00" routeLength="995.90" waitingTime="2.00" waitingCount="2" stopTime="0.00" timeLoss="18.41" rerouteNo="0" devices="tripinfo_NS_44" vType="car" speedFactor="0.94" vaporized=""/>
    <tripinfo id="SN_50" depart="50.00" departLane="3i_0" departPos="4.10" departSpeed="0.00" departDelay="0.00" arrival="138.00" arrivalLane="4o_0" arrivalPos="492.80" arrivalSpeed="11.11" duration="88.00" routeLength="995.90" waitingTime="0.00" waitingCount="0" stopTime="0.00" timeLoss="27.11" rerouteNo="0" devices="tripinfo_SN_50" vType="car" speedFactor="1.16" vaporized=""/>
    <tripinfo id="EW_53" depart="53.00" departLane="4i_0" departPos="4.10" departSpeed="0.00" departDelay="0.00" arrival="140.00" arrivalLane="3o_0" arrivalPos="492.80" arrivalSpeed="9.74" duration="87.00" routeLength="995.90" waitingTime="0.00" waitingCount="0" stopTime="0.00" timeLoss="13.88" rerouteNo="0" devices="tripinfo_EW_53" vType="car" speedFactor="0.97" vaporized=""/>
    <tripinfo id="WE_50" depart="50.00" departLane="1i_0" departPos="4.10" departSpeed="0.00" departDelay="0.00" arrival="145.00" arrivalLane="2o_0" arrivalPos="492.80" arrivalSpeed="10.00" duration="95.00" routeLength="995.90" waitingTime="5.00" waitingCount="2" stopTime="0.00" timeLoss="19.30" rerouteNo="0" devices="tripinfo_WE_50" vType="car" speedFactor="0.94" vaporized=""/>
    <tripinfo id="WE_51" depart="53.00" departLane="1i_0" departPos="4.10" departSpeed="0.00" departDelay="2.00" arrival="146.00" arrivalLane="3o_0" arrivalPos="492.80" arrivalSpeed="10.99" duration="93.00" routeLength="990.53" waitingTime="4.00" waitingCount="3" stopTime="0.00" timeLoss="23.28" rerouteNo="0" devices="tripinfo_WE_51" vType="car" speedFactor="1.02" vaporized=""/>
    <tripinfo id="NS_56" depart="56.00" departLane="2i_0" departPos="4.10" departSpeed="0.00" departDelay="0.00" arrival="146.00" arrivalLane="4o_0" arrivalPos="492.80" arrivalSpeed="8.89" duration="90.00" routeLength="990.53" waitingTime="1.00" waitingCount="1" stopTime="0.00" timeLoss="10.77" rerouteNo="0" devices="tripinfo_NS_56" vType="car" speedFactor="0.89" vaporized=""/>
    <tripinfo id="SN_52" depart="53.00" departLane="3i_0" departPos="4.10" departSpeed="0.00" departDelay="1.00" arrival="155.00" arrivalLane="1o_0" arrivalPos="492.80" arrivalSpeed="11.10" duration="102.00" routeLength="995.70" waitingTime="17.00" waitingCount="1" stopTime="0.00" timeLoss="31.69" rerouteNo="0" devices="tripinfo_SN_52" vType="car" speedFactor="1.01" vaporized=""/>
    <tripinfo id="WE_61" depart="61.00" departLane="1i_0" departPos="4.10" departSpeed="0.00" departDelay="0.00" arrival="155.00" arrivalLane="4o_0" arrivalPos="492.80" arrivalSpeed="11.44" duration="94.00" routeLength="995.70" waitingTime="6.00" waitingCount="2" stopTime="0.00" timeLoss="31.00" rerouteNo="0" devices="tripinfo_WE_61" vType="car" speedFactor="1.13" vaporized=""/>
    <tripinfo id="NS_57" depart="59.00" departLane="2i_0" departPos="4.10" departSpeed="0.00" departDelay="2.00" arrival="157.00" arrivalLane="3o_0" arrivalPos="492.80" arrivalSpeed="8.90" duration="98.00" routeLength="995.70" waitingTime="2.00" waitingCount="2" stopTime="0.00" timeLoss="16.72" rerouteNo="0" devices="tripinfo_NS_57" vType="car" speedFactor="0.87" vaporized=""/>
    <tripinfo id="EW_69" depart="69.00" departLane="4i_0" departPos="4.10" departSpeed="0.00" departDelay="0.00" arrival="159.00" arrivalLane="3o_0" arrivalPos="492.80" arrivalSpeed="11.93" duration="90.00" routeLength="995.90" waitingTime="3.00" waitingCount="1" stopTime="0.00" timeLoss="29.45" rerouteNo="0" devices="tripinfo_EW_69" vType="car" speedFactor="1.18" vaporized=""/>
    <tripinfo id="EW_83" depart="83.00" departLane="4i_0" departPos="4.10" departSpeed="0.00" departDelay="0.00" arrival="162.00" arrivalLane="1o_0" arrivalPos="492.80" arrivalSpeed="10.63" duration="79.00" routeLength="990.53" waitingTime="0.00" waitingCount="0" stopTime="0.00" timeLoss="7.96" rerouteNo="0" devices="tripinfo_EW_83" vType="car" speedFactor="0.99" vaporized=""/>
    <tripinfo id="EW_90" depart="90.00" departLane="4i_0" departPos="4.10" departSpeed="0.00" departDelay="0.00" arrival="164.00" arrivalLane="1o_0" arrivalPos="492.80" arrivalSpeed="12.18" duration="74.00" routeLength="990.53" waitingTime="1.00" waitingCount="1" stopTime="0.00" timeLoss="13.75" rerouteNo="0" devices="tripinfo_EW_90" vType="car" speedFactor="1.18" vaporized=""/>
    <tripinfo id="SN_56" depart="56.00" departLane="3i_0" departPos="4.10" departSpeed="0.00" departDelay="0.00" arrival="172.00" arrivalLane="4o_0" arrivalPos="492.80" arrivalSpeed="8.90" duration="116.00" routeLength="995.90" waitingTime="15.00" waitingCount="2" stopTime="0.00" timeLoss="30.42" rerouteNo="0" devices="tripinfo_SN_56" vType="car" speedFactor="0.83" vaporized=""/>
    <tripinfo id="SN_60" depart="62.00" departLane="3i_0" departPos="4.10" departSpeed="0.00" departDelay="2.00" arrival="173.00" arrivalLane="2o_0" arrivalPos="492.80" arrivalSpeed="10.30" duration="111.00" routeLength="990.53" waitingTime="13.00" waitingCount="2" stopTime="0.00" timeLoss="36.89" rerouteNo="0" devices="tripinfo_SN_60" vType="car" speedFactor="0.95" vaporized=""/>
    <tripinfo id="WE_69" depart="69.00" departLane="1i_0" departPos="4.10" departSpeed="0.00" departDelay="0.00" arrival="174.00" arrivalLane="4o_0" arrivalPos="492.80" arrivalSpeed="9.22" duration="105.00" routeLength="995.70" waitingTime="3.00" waitingCount="2" stopTime="0.00" timeLoss="28.89" rerouteNo="0" devices="tripinfo_WE_69" vType="car" speedFactor="0.93" vaporized=""/>
    <tripinfo id="SN_59" depart="59.00" departLane="3i_0" departPos="4.10" departSpeed="0.00" departDelay="0.00" arrival="176.00" arrivalLane="4o_0" arrivalPos="492.80" arrivalSpeed="9.46" duration="117.00" routeLength="995.90" waitingTime="14.00" waitingCount="3" stopTime="0.00" timeLoss="39.50" rerouteNo="0" devices="tripinfo_SN_59" vType="car" speedFactor="0.92" vaporized=""/>
    <tripinfo id="NS_81" depart="82.00" departLane="2i_0" departPos="4.10" departSpeed="0.00" departDelay="1.00" arrival="178.00" arrivalLane="4o_0" arrivalPos="492.80" arrivalSpeed="12.23" duration="96.00" routeLength="990.53" waitingTime="13.00" waitingCount="1" stopTime="0.00" timeLoss="35.09" rerouteNo="0" devices="tripinfo_NS_81" vType="car" speedFactor="1.17" vaporized=""/>
    <tripinfo id="NS_88" depart="88.00" departLane="2i_0" departPos="4.10" departSpeed="0.00" departDelay="0.00" arrival="180.00" arrivalLane="3o_0" arrivalPos="492.80" arrivalSpeed="10.75" duration="92.00" routeLength="995.70" waitingTime="3.00" waitingCount="3" stopTime="0.00" timeLoss="21.92" rerouteNo="0" devices="tripinfo_NS_88" vType="car" speedFactor="1.02" vaporized=""/>
    <tripinfo id="WE_89" depart="89.00" departLane="1i_0" departPos="4.10" departSpeed="0.00" departDelay="0.00" arrival="180.00" arrivalLane="4o_0" arrivalPos="492.80" arrivalSpeed="9.93" duration="91.00" routeLength="995.70" waitingTime="1.00" waitingCount="1" stopTime="0.00" timeLoss="17.66" rerouteNo="0" devices="tripinfo_WE_89" vType="car" speedFactor="0.97" vaporized=""/>
    <tripinfo id="SN_75" depart="75.00" departLane="3i_0" departPos="4.10" departSpeed="0.00" departDelay="0.00" arrival="181.00" arrivalLane="4o_0" arrivalPos="492.80" arrivalSpeed="11.56" duration="106.00" routeLength="995.90" waitingTime="7.00" waitingCount="3" stopTime="0.00" timeLoss="44.60" rerouteNo="0" devices="tripinfo_SN_75" vType="car" speedFactor="1.15" vaporized=""/>
    <tripinfo id="WE_92" depart="92.00" departLane="1i_0" departPos="4.10" departSpeed="0.00" departDelay="0.00" arrival="183.00" arrivalLane="4o_0" arrivalPos="492.80" arrivalSpeed="12.13" duration="91.00" routeLength="995.70" waitingTime="1.00" waitingCount="1" stopTime="0.00" timeLoss="26.50" rerouteNo="0" devices="tripinfo_WE_92" vType="car" speedFactor="1.10" vaporized=""/>
    <tripinfo id="SN_78" depart="78.00" departLane="3i_0" departPos="4.10" departSpeed="0.00" departDelay="0.00" arrival="185.00" arrivalLane="4o_0" arrivalPos="492.80" arrivalSpeed="11.01" duration="107.00" routeLength="995.90" waitingTime="2.00" waitingCount="2" stopTime="0.00" timeLoss="36.22" rerouteNo="0" devices="tripinfo_SN_78" vType="car" speedFactor="1.01" vaporized=""/>
    <tripinfo id="EW_106" depart="106.00" departLane="4i_0" departPos="4.10" departSpeed="0.00" departDelay="0.00" arrival="190.00" arrivalLane="2o_0" arrivalPos="492.80" arrivalSpeed="11.03" duration="84.00" routeLength="995.70" waitingTime="4.00" waitingCount="1" stopTime="0.00" timeLoss="18.54" rerouteNo="0" devices="tripinfo_EW_106" vType="car" speedFactor="1.09" vaporized=""/>
    <tripinfo id="NS_92" depart="92.00" departLane="2i_0" departPos="4.10" departSpeed="0.00" departDelay="0.00" arrival="192.00" arrivalLane="4o_0" arrivalPos="492.80" arrivalSpeed="9.82" duration="100.00" routeLength="990.53" waitingTime="2.00" waitingCount="2" stopTime="0.00" timeLoss="21.84" rerouteNo="0" devices="tripinfo_NS_92" vType="car" speedFactor="0.90" vaporized=""/>
    <tripinfo id="SN_95" depart="95.00" departLane="3i_0" departPos="4.10" departSpeed="0.00" departDelay="0.00" arrival="194.00" arrivalLane="4o_0" arrivalPos="492.80" arrivalSpeed="11.45" duration="99.00" routeLength="995.90" waitingTime="0.00" waitingCount="0" stopTime="0.00" timeLoss="29.96" rerouteNo="0" devices="tripinfo_SN_95" vType="car" speedFactor="1.03" vaporized=""/>
    <tripinfo id="SN_109" depart="109.00" departLane="3i_0" departPos="4.10" departSpeed="0.00" departDelay="0.00" arrival="196.00" arrivalLane="4o_0" arrivalPos="492.80" arrivalSpeed="11.19" duration="87.00" routeLength="995.90" waitingTime="0.00" waitingCount="0" stopTime="0.00" timeLoss="18.56" rerouteNo="0" devices="tripinfo_SN_109" vType="car" speedFactor="1.04" vaporized=""/>
    <tripinfo id="NS_105" depart="105.00" departLane="2i_0" departPos="4.10" departSpeed="0.00" departDelay="0.00" arrival="198.00" arrivalLane="1o_0" arrivalPos="492.80" arrivalSpeed="9.66" duration="93.00" routeLength="995.90" waitingTime="2.00" waitingCount="2" stopTime="0.00" timeLoss="19.03" rerouteNo="0" devices="tripinfo_NS_105" vType="car" speedFactor="0.96" vaporized=""/>
    <tripinfo id="SN_112" depart="113.00" departLane="3i_0" departPos="10.10" departSpeed="0.00" departDelay="1.00" arrival="198.00" arrivalLane="4o_0" arrivalPos="492.80" arrivalSpeed="11.42" duration="85.00" routeLength="989.90" waitingTime="0.00" waitingCount="0" stopTime="0.00" timeLoss="16.96" rerouteNo="0" devices="tripinfo_SN_112" vType="truck" speedFactor="1.04" vaporized=""/>
    <tripinfo id="NS_108" depart="108.00" departLane="2i_0" departPos="4.10" departSpeed="0.00" departDelay="0.00" arrival="202.00" arrivalLane="4o_0" arrivalPos="492.80" arrivalSpeed="10.47" duration="94.00" routeLength="990.53" waitingTime="2.00" waitingCount="2" stopTime="0.00" timeLoss="26.24" rerouteNo="0" devices="tripinfo_NS_108" vType="car" speedFactor="1.04" vaporized=""/>
    <tripinfo id="EW_117" depart="117.00" departLane="4i_0" departPos="4.10" departSpeed="0.00" departDelay="0.00" arrival="204.00" arrivalLane="2o_0" arrivalPos="492.80" arrivalSpeed="10.74" duration="87.00" routeLength="995.70" waitingTime="2.00" waitingCount="1" stopTime="0.00" timeLoss="15.52" rerouteNo="0" devices="tripinfo_EW_117" vType="car" speedFactor="1.00" vaporized=""/>
    <tripinfo id="SN_127" depart="129.00" departLane="3i_0" departPos="10.10" departSpeed="0.00" departDelay="2.00" arrival="207.00" arrivalLane="4o_0" arrivalPos="492.80" arrivalSpeed="11.50" duration="78.00" routeLength="989.90" waitingTime="0.00" waitingCount="0" stopTime="0.00" timeLoss="11.91" rerouteNo="0" devices="tripinfo_SN_127" vType="truck" speedFactor="1.08" vaporized=""/>
    <tripinfo id="EW_122" depart="122.00" departLane="4i_0" departPos="4.10" departSpeed="0.00" departDelay="0.00" arrival="209.00" arrivalLane="1o_0" arrivalPos="492.80" arrivalSpeed="9.86" duration="87.00" routeLength="990.53" waitingTime="0.00" waitingCount="0" stopTime="0.00" timeLoss="8.29" rerouteNo="0" devices="tripinfo_EW_122" vType="car" speedFactor="0.90" vaporized=""/>
    <tripinfo id="SN_125" depart="125.00" departLane="3i_0" departPos="4.10" departSpeed="0.00" departDelay="0.00" arrival="216.00" arrivalLane="2o_0" arrivalPos="492.80" arrivalSpeed="8.36" duration="91.00" routeLength="990.53" waitingTime="0.00" waitingCount="0" stopTime="0.00" timeLoss="8.57" rerouteNo="0" devices="tripinfo_SN_125" vType="car" speedFactor="0.85" vaporized=""/>
    <tripinfo id="NS_131" depart="131.00" departLane="2i_0" departPos="4.10" departSpeed="0.00" departDelay="0.00" arrival="216.00" arrivalLane="1o_0" arrivalPos="492.80" arrivalSpeed="11.10" duration="85.00" routeLength="995.90" waitingTime="0.00" waitingCount="0" stopTime="0.00" timeLoss="15.00" rerouteNo="0" devices="tripinfo_NS_131" vType="car" speedFactor="1.02" vaporized=""/>
    <tripinfo id="SN_132" depart="134.00" departLane="3i_0" departPos="4.10" departSpeed="0.00" departDelay="2.00" arrival="218.00" arrivalLane="1o_0" arrivalPos="492.80" arrivalSpeed="11.44" duration="84.00" routeLength="995.70" waitingTime="0.00" waitingCount="0" stopTime="0.00" timeLoss="18.78" rerouteNo="0" devices="tripinfo_SN_132" vType="car" speedFactor="1.10" vaporized=""/>
    <tripinfo id="SN_140" depart="140.00" departLane="3i_0" departPos="4.10" departSpeed="0.00" departDelay="0.00" arrival="225.00" arrivalLane="1o_0" arrivalPos="492.80" arrivalSpeed="10.91" duration="85.00" routeLength="995.70" waitingTime="0.00" waitingCount="0" stopTime="0.00" timeLoss="13.45" rerouteNo="0" devices="tripinfo_SN_140" vType="car" speedFactor="1.00" vaporized=""/>
    <tripinfo id="WE_123" depart="123.00" departLane="1i_0" departPos="4.10" departSpeed="0.00" departDelay="0.00" arrival="227.00" arrivalLane="4o_0" arrivalPos="492.80" arrivalSpeed="9.33" duration="104.00" routeLength="995.70" waitingTime="10.00" waitingCount="2" stopTime="0.00" timeLoss="22.80" rerouteNo="0" devices="tripinfo_WE_123" vType="car" speedFactor="0.88" vaporized=""/>
    <tripinfo id="SN_144" depart="146.00" departLane="3i_0" departPos="4.10" departSpeed="0.00" departDelay="2.00" arrival="227.00" arrivalLane="1o_0" arrivalPos="492.80" arrivalSpeed="10.71" duration="81.00" routeLength="995.70" waitingTime="0.00" waitingCount="0" stopTime="0.00" timeLoss="12.01" rerouteNo="0" devices="tripinfo_SN_144" vType="car" speedFactor="1.02" vaporized=""/>
    <tripinfo id="EW_141" depart="141.00" departLane="4i_0" departPos="4.10" departSpeed="0.00" departDelay="0.00" arrival="228.00" arrivalLane="3o_0" arrivalPos="492.80" arrivalSpeed="8.78" duration="87.00" routeLength="995.90" waitingTime="0.00" waitingCount="0" stopTime="0.00" timeLoss="7.92" rerouteNo="0" devices="tripinfo_EW_141" vType="car" speedFactor="0.90" vaporized=""/>
    <tripinfo id="SN_134" depart="137.00" departLane="3i_0" departPos="4.10" departSpeed="0.00" departDelay="3.00" arrival="229.00" arrivalLane="4o_0" arrivalPos="492.80" arrivalSpeed="10.32" duration="92.00" routeLength="995.90" waitingTime="0.00" waitingCount="0" stopTime="0.00" timeLoss="20.80" rerouteNo="0" devices="tripinfo_SN_134" vType="car" speedFactor="1.00" vaporized=""/>
    <tripinfo id="WE_142" depart="142.00" departLane="1i_0" departPos="4.10" departSpeed="0.00" departDelay="0.00" arrival="230.00" arrivalLane="3o_0" arrivalPos="492.80" arrivalSpeed="11.82" duration="88.00" routeLength="990.53" waitingTime="2.00" waitingCount="1" stopTime="0.00" timeLoss="25.83" rerouteNo="0" devices="tripinfo_WE_142" vType="car" speedFactor="1.14" vaporized=""/>
    <tripinfo id="NS_146" depart="146.00" departLane="2i_0" departPos="4.10" departSpeed="0.00" departDelay="0.00" arrival="233.00" arrivalLane="1o_0" arrivalPos="492.80" arrivalSpeed="9.77" duration="87.00" routeLength="995.90" waitingTime="1.00" waitingCount="1" stopTime="0.00" timeLoss="13.67" rerouteNo="0" devices="tripinfo_NS_146" vType="car" speedFactor="0.97" vaporized=""/>
    <tripinfo id="WE_125" depart="125.00" departLane="1i_0" departPos="4.10" departSpeed="0.00" departDelay="0.00" arrival="235.00" arrivalLane="2o_0" arrivalPos="492.80" arrivalSpeed="8.63" duration="110.00" routeLength="995.90" waitingTime="5.00" waitingCount="2" stopTime="0.00" timeLoss="27.14" rerouteNo="0" devices="tripinfo_WE_125" vType="car" speedFactor="0.85" vaporized=""/>
    <tripinfo id="SN_156" depart="157.00" departLane="3i_0" departPos="4.10" departSpeed="0.00" departDelay="1.00" arrival="238.00" arrivalLane="1o_0" arrivalPos="492.80" arrivalSpeed="10.22" duration="81.00" routeLength="995.70" waitingTime="0.00" waitingCount="0" stopTime="0.00" timeLoss="10.71" rerouteNo="0" devices="tripinfo_SN_156" vType="car" speedFactor="1.02" vaporized=""/>
    <tripinfo id="NS_152" depart="152.00" departLane="2i_0" departPos="10.10" departSpeed="0.00" departDelay="0.00" arrival="241.00" arrivalLane="1o_0" arrivalPos="492.80" arrivalSpeed="11.28" duration="89.00" routeLength="989.90" waitingTime="2.00" waitingCount="1" stopTime="0.00" timeLoss="20.63" rerouteNo="0" devices="tripinfo_NS_152" vType="truck" speedFactor="1.04" vaporized=""/>
    <tripinfo id="NS_154" depart="156.00" departLane="2i_0" departPos="4.10" departSpeed="0.00" departDelay="2.00" arrival="244.00" arrivalLane="3o_0" arrivalPos="492.80" arrivalSpeed="11.22" duration="88.00" routeLength="995.70" waitingTime="2.00" waitingCount="2" stopTime="0.00" timeLoss="24.18" rerouteNo="0" devices="tripinfo_NS_154" vType="car" speedFactor="1.12" vaporized=""/>
    <tripinfo id="EW_161" depart="161.00" departLane="4i_0" departPos="4.10" departSpeed="0.00" departDelay="0.00" arrival="250.00" arrivalLane="1o_0" arrivalPos="492.80" arrivalSpeed="9.57" duration="89.00" routeLength="990.53" waitingTime="0.00" waitingCount="0" stopTime="0.00" timeLoss="13.33" rerouteNo="0" devices="tripinfo_EW_161" vType="car" speedFactor="0.94" vaporized=""/>
    <tripinfo id="WE_161" depart="164.00" departLane="1i_0" departPos="4.10" departSpeed="0.00" departDelay="3.00" arrival="251.00" arrivalLane="4o_0" arrivalPos="492.80" arrivalSpeed="10.79" duration="87.00" routeLength="995.70" waitingTime="1.00" waitingCount="1" stopTime="0.00" timeLoss="15.16" rerouteNo="0" devices="tripinfo_WE_161" vType="car" speedFactor="0.99" vaporized=""/>
    <tripinfo id="SN_169" depart="169.00" departLane="3i_0" departPos="4.10" departSpeed="0.00" departDelay="0.00" arrival="257.00" arrivalLane="4o_0" arrivalPos="492.80" arrivalSpeed="9.43" duration="88.00" routeLength="995.90" waitingTime="0.00" waitingCount="0" stopTime="0.00" timeLoss="9.78" rerouteNo="0" devices="tripinfo_SN_169" vType="car" speedFactor="0.91" vaporized=""/>
    <tripinfo id="WE_172" depart="172.00" departLane="1i_0" departPos="4.10" departSpeed="0.00" departDelay="0.00" arrival="259.00" arrivalLane="4o_0" arrivalPos="492.80" arrivalSpeed="10.85" duration="87.00" routeLength="995.70" waitingTime="0.00" waitingCount="0" stopTime="0.00" timeLoss="18.42" rerouteNo="0" devices="tripinfo_WE_172" vType="car" speedFactor="1.04" vaporized=""/>
    <tripinfo id="NS_169" depart="169.00" departLane="2i_0" departPos="4.10" departSpeed="0.00" departDelay="0.00" arrival="261.00" arrivalLane="3o_0" arrivalPos="492.80" arrivalSpeed="9.36" duration="92.00" routeLength="995.70" waitingTime="0.00" waitingCount="0" stopTime="0.00" timeLoss="11.29" rerouteNo="0" devices="tripinfo_NS_169" vType="car" speedFactor="0.88" vaporized=""/>
    <tripinfo id="SN_176" depart="176.00" departLane="3i_0" departPos="4.10" departSpeed="0.00" departDelay="0.00" arrival="262.00" arrivalLane="2o_0" arrivalPos="492.80" arrivalSpeed="10.77" duration="86.00" routeLength="990.53" waitingTime="1.00" waitingCount="1" stopTime="0.00" timeLoss="16.75" rerouteNo="0" devices="tripinfo_SN_176" vType="car" speedFactor="1.02" vaporized=""/>
    <tripinfo id="WE_176" depart="176.00" departLane="1i_0" departPos="4.10" departSpeed="0.00" departDelay="0.00" arrival="263.00" arrivalLane="3o_0" arrivalPos="492.80" arrivalSpeed="10.54" duration="87.00" routeLength="990.53" waitingTime="0.00" waitingCount="0" stopTime="0.00" timeLoss="17.39" rerouteNo="0" devices="tripinfo_WE_176" vType="car" speedFactor="1.02" vaporized=""/>
    <tripinfo id="SN_171" depart="171.00" departLane="3i_0" departPos="4.10" departSpeed="0.00" departDelay="0.00" arrival="265.00" arrivalLane="4o_0" arrivalPos="492.80" arrivalSpeed="9.67" duration="94.00" routeLength="995.90" waitingTime="1.00" waitingCount="1" stopTime="0.00" timeLoss="16.07" rerouteNo="0" devices="tripinfo_SN_171" vType="car" speedFactor="0.91" vaporized=""/>
    <tripinfo id="WE_177" depart="179.00" departLane="1i_0" departPos="4.10" departSpeed="0.00" departDelay="2.00" arrival="267.00" arrivalLane="4o_0" arrivalPos="492.80" arrivalSpeed="10.51" duration="88.00" routeLength="995.70" waitingTime="0.00" waitingCount="0" stopTime="0.00" timeLoss="14.62" rerouteNo="0" devices="tripinfo_WE_177" vType="car" speedFactor="0.97" vaporized=""/>
    <tripinfo id="NS_181" depart="181.00" departLane="2i_0" departPos="4.10" departSpeed="0.00" departDelay="0.00" arrival="269.00" arrivalLane="3o_0" arrivalPos="492.80" arrivalSpeed="10.37" duration="88.00" routeLength="995.70" waitingTime="1.00" waitingCount="1" stopTime="0.00" timeLoss="13.43" rerouteNo="0" devices="tripinfo_NS_181" vType="car" speedFactor="0.96" vaporized=""/>
    <tripinfo id="WE_185" depart="185.00" departLane="1i_0" departPos="4.10" departSpeed="0.00" departDelay="0.00" arrival="270.00" arrivalLane="3o_0" arrivalPos="492.80" arrivalSpeed="10.56" duration="85.00" routeLength="990.53" waitingTime="3.00" waitingCount="1" stopTime="0.00" timeLoss="16.95" rerouteNo="0" devices="tripinfo_WE_185" vType="car" speedFactor="1.03" vaporized=""/>
    <tripinfo id="EW_179" depart="185.00" departLane="4i_0" departPos="4.10" departSpeed="0.00" departDelay="6.00" arrival="272.00" arrivalLane="3o_0" arrivalPos="492.80" arrivalSpeed="10.80" duration="87.00" routeLength="995.90" waitingTime="1.00" waitingCount="1" stopTime="0.00" timeLoss="19.90" rerouteNo="0" devices="tripinfo_EW_179" vType="car" speedFactor="1.06" vaporized=""/>
    <tripinfo id="NS_184" depart="184.00" departLane="2i_0" departPos="4.10" departSpeed="0.00" departDelay="0.00" arrival="272.00" arrivalLane="4o_0" arrivalPos="492.80" arrivalSpeed="10.23" duration="88.00" routeLength="990.53" waitingTime="0.00" waitingCount="0" stopTime="0.00" timeLoss="16.21" rerouteNo="0" devices="tripinfo_NS_184" vType="car" speedFactor="0.98" vaporized=""/>