<?xml version="1.0" encoding="UTF-8"?>

<!-- generated on 2024-05-04 21:15:32 by Eclipse SUMO sumo Version 1.19.0
<configuration xmlns:xsi="http://www.w3.org/2001/XMLSchema-instance" xsi:noNamespaceSchemaLocation="http://sumo.dlr.de/xsd/sumoConfiguration.xsd">

    <input>
        <net-file value="test5.net.xml"/>
        <route-files value="route_gen.rou.xml"/>
    </input>

    <output>
        <tripinfo-output value="tripinfo_epi982.xml"/>
    </output>

    <report>
        <no-warnings value="true"/>
    </report>

    <traci_server>
        <remote-port value="55531"/>
    </traci_server>

</configuration>
-->

<tripinfos xmlns:xsi="http://www.w3.org/2001/XMLSchema-instance" xsi:noNamespaceSchemaLocation="http://sumo.dlr.de/xsd/tripinfo_file.xsd">
    <tripinfo id="NS_1" depart="1.00" departLane="2i_0" departPos="4.10" departSpeed="0.00" departDelay="0.00" arrival="76.00" arrivalLane="1o_0" arrivalPos="492.80" arrivalSpeed="11.26" duration="75.00" routeLength="995.90" waitingTime="0.00" waitingCount="0" stopTime="0.00" timeLoss="8.24" rerouteNo="0" devices="tripinfo_NS_1" vType="car" speedFactor="1.06" vaporized=""/>
    <tripinfo id="SN_3" depart="3.00" departLane="3i_0" departPos="4.10" departSpeed="0.00" departDelay="0.00" arrival="80.00" arrivalLane="2o_0" arrivalPos="492.80" arrivalSpeed="9.94" duration="77.00" routeLength="990.53" waitingTime="0.00" waitingCount="0" stopTime="0.00" timeLoss="7.20" rerouteNo="0" devices="tripinfo_SN_3" vType="car" speedFactor="1.01" vaporized=""/>
    <tripinfo id="NS_8" depart="8.00" departLane="2i_0" departPos="4.10" departSpeed="0.00" departDelay="0.00" arrival="83.00" arrivalLane="4o_0" arrivalPos="492.80" arrivalSpeed="11.40" duration="75.00" routeLength="990.53" waitingTime="0.00" waitingCount="0" stopTime="0.00" timeLoss="9.12" rerouteNo="0" devices="tripinfo_NS_8" vType="car" speedFactor="1.08" vaporized=""/>
    <tripinfo id="NS_3" depart="4.00" departLane="2i_0" departPos="4.10" departSpeed="0.00" departDelay="1.00" arrival="88.00" arrivalLane="1o_0" arrivalPos="492.80" arrivalSpeed="9.81" duration="84.00" routeLength="995.90" waitingTime="0.00" waitingCount="0" stopTime="0.00" timeLoss="8.78" rerouteNo="0" devices="tripinfo_NS_3" vType="car" speedFactor="0.94" vaporized=""/>
    <tripinfo id="NS_10" depart="10.00" departLane="2i_0" departPos="4.10" departSpeed="0.00" departDelay="0.00" arrival="88.00" arrivalLane="3o_0" arrivalPos="492.80" arrivalSpeed="11.15" duration="78.00" routeLength="995.70" waitingTime="0.00" waitingCount="0" stopTime="0.00" timeLoss="9.17" rerouteNo="0" devices="tripinfo_NS_10" vType="car" speedFactor="1.03" vaporized=""/>
    <tripinfo id="SN_16" depart="16.00" departLane="3i_0" departPos="4.10" departSpeed="0.00" departDelay="0.00" arrival="102.00" arrivalLane="4o_0" arrivalPos="492.80" arrivalSpeed="9.87" duration="86.00" routeLength="995.90" waitingTime="0.00" waitingCount="0" stopTime="0.00" timeLoss="10.47" rerouteNo="0" devices="tripinfo_SN_16" vType="car" speedFactor="0.94" vaporized=""/>
    <tripinfo id="WE_24" depart="24.00" departLane="1i_0" departPos="4.10" departSpeed="0.00" departDelay="0.00" arrival="105.00" arrivalLane="4o_0" arrivalPos="492.80" arrivalSpeed="11.28" duration="81.00" routeLength="995.70" waitingTime="1.00" waitingCount="1" stopTime="0.00" timeLoss="13.24" rerouteNo="0" devices="tripinfo_WE_24" vType="car" speedFactor="1.05" vaporized=""/>
    <tripinfo id="SN_13" depart="13.00" departLane="3i_0" departPos="4.10" departSpeed="0.00" departDelay="0.00" arrival="107.00" arrivalLane="2o_0" arrivalPos="492.80" arrivalSpeed="7.98" duration="94.00" routeLength="990.53" waitingTime="0.00" waitingCount="0" stopTime="0.00" timeLoss="9.25" rerouteNo="0" devices="tripinfo_SN_13" vType="car" speedFactor="0.83" vaporized=""/>
    <tripinfo id="NS_16" depart="16.00" departLane="2i_0" departPos="4.10" departSpeed="0.00" departDelay="0.00" arrival="109.00" arrivalLane="1o_0" arrivalPos="492.80" arrivalSpeed="8.62" duration="93.00" routeLength="995.90" waitingTime="0.00" waitingCount="0" stopTime="0.00" timeLoss="12.58" rerouteNo="0" devices="tripinfo_NS_16" vType="car" speedFactor="0.89" vaporized=""/>
    <tripinfo id="EW_22" depart="22.00" departLane="4i_0" departPos="4.10" departSpeed="0.00" departDelay="0.00" arrival="109.00" arrivalLane="2o_0" arrivalPos="492.80" arrivalSpeed="11.28" duration="87.00" routeLength="995.70" waitingTime="2.00" waitingCount="1" stopTime="0.00" timeLoss="21.84" rerouteNo="0" devices="tripinfo_EW_22" vType="car" speedFactor="1.09" vaporized=""/>
    <tripinfo id="EW_16" depart="16.00" departLane="4i_0" departPos="10.10" departSpeed="0.00" departDelay="0.00" arrival="111.00" arrivalLane="1o_0" arrivalPos="492.80" arrivalSpeed="11.06" duration="95.00" routeLength="984.53" waitingTime="4.00" waitingCount="1" stopTime="0.00" timeLoss="26.08" rerouteNo="0" devices="tripinfo_EW_16" vType="truck" speedFactor="1.02" vaporized=""/>
    <tripinfo id="WE_31" depart="31.00" departLane="1i_0" departPos="10.10" departSpeed="0.00" departDelay="0.00" arrival="117.00" arrivalLane="3o_0" arrivalPos="492.80" arrivalSpeed="10.80" duration="86.00" routeLength="984.53" waitingTime="0.00" waitingCount="0" stopTime="0.00" timeLoss="15.52" rerouteNo="0" devices="tripinfo_WE_31" vType="truck" speedFactor="1.00" vaporized=""/>
    <tripinfo id="EW_42" depart="42.00" departLane="4i_0" departPos="4.10" departSpeed="0.00" departDelay="0.00" arrival="118.00" arrivalLane="2o_0" arrivalPos="492.80" arrivalSpeed="12.02" duration="76.00" routeLength="995.70" waitingTime="0.00" waitingCount="0" stopTime="0.00" timeLoss="14.88" rerouteNo="0" devices="tripinfo_EW_42" vType="car" speedFactor="1.16" vaporized=""/>
    <tripinfo id="SN_21" depart="21.00" departLane="3i_0" departPos="4.10" departSpeed="0.00" departDelay="0.00" arrival="120.00" arrivalLane="1o_0" arrivalPos="492.80" arrivalSpeed="9.08" duration="99.00" routeLength="995.70" waitingTime="2.00" waitingCount="1" stopTime="0.00" timeLoss="16.27" rerouteNo="0" devices="tripinfo_SN_21" vType="car" speedFactor="0.86" vaporized=""/>
    <tripinfo id="SN_24" depart="24.00" departLane="3i_0" departPos="4.10" departSpeed="0.00" departDelay="0.00" arrival="122.00" arrivalLane="1o_0" arrivalPos="492.80" arrivalSpeed="12.05" duration="98.00" routeLength="995.70" waitingTime="2.00" waitingCount="1" stopTime="0.00" timeLoss="34.38" rerouteNo="0" devices="tripinfo_SN_24" vType="car" speedFactor="1.12" vaporized=""/>
    <tripinfo id="NS_23" depart="23.00" departLane="2i_0" departPos="4.10" departSpeed="0.00" departDelay="0.00" arrival="124.00" arrivalLane="1o_0" arrivalPos="492.80" arrivalSpeed="10.84" duration="101.00" routeLength="995.90" waitingTime="11.00" waitingCount="3" stopTime="0.00" timeLoss="31.32" rerouteNo="0" devices="tripinfo_NS_23" vType="car" speedFactor="1.03" vaporized=""/>
    <tripinfo id="SN_38" depart="40.00" departLane="3i_0" departPos="4.10" departSpeed="0.00" departDelay="2.00" arrival="127.00" arrivalLane="1o_0" arrivalPos="492.80" arrivalSpeed="9.70" duration="87.00" routeLength="995.70" waitingTime="0.00" waitingCount="0" stopTime="0.00" timeLoss="11.34" rerouteNo="0" devices="tripinfo_SN_38" vType="car" speedFactor="0.94" vaporized=""/>
    <tripinfo id="SN_37" depart="37.00" departLane="3i_0" departPos="4.10" departSpeed="0.00" departDelay="0.00" arrival="128.00" arrivalLane="4o_0" arrivalPos="492.80" arrivalSpeed="9.31" duration="91.00" routeLength="995.90" waitingTime="0.00" waitingCount="0" stopTime="0.00" timeLoss="10.43" rerouteNo="0" devices="tripinfo_SN_37" vType="car" speedFactor="0.88" vaporized=""/>
    <tripinfo id="WE_38" depart="38.00" departLane="1i_0" departPos="4.10" departSpeed="0.00" departDelay="0.00" arrival="130.00" arrivalLane="2o_0" arrivalPos="492.80" arrivalSpeed="9.26" duration="92.00" routeLength="995.90" waitingTime="2.00" waitingCount="1" stopTime="0.00" timeLoss="16.83" rerouteNo="0" devices="tripinfo_WE_38" vType="car" speedFactor="0.94" vaporized=""/>
    <tripinfo id="WE_46" depart="46.00" departLane="1i_0" departPos="10.10" departSpeed="0.00" departDelay="0.00" arrival="133.00" arrivalLane="4o_0" arrivalPos="492.80" arrivalSpeed="11.07" duration="87.00" routeLength="989.70" waitingTime="0.00" waitingCount="0" stopTime="0.00" timeLoss="16.73" rerouteNo="0" devices="tripinfo_WE_46" vType="truck" speedFactor="1.01" vaporized=""/>
    <tripinfo id="NS_32" depart="32.00" departLane="2i_0" departPos="4.10" departSpeed="0.00" departDelay="0.00" arrival="136.00" arrivalLane="3o_0" arrivalPos="492.80" arrivalSpeed="9.29" duration="104.00" routeLength="995.70" waitingTime="10.00" waitingCount="3" stopTime="0.00" timeLoss="27.71" rerouteNo="0" devices="tripinfo_NS_32" vType="car" speedFactor="0.93" vaporized=""/>
    <tripinfo id="NS_46" depart="46.00" departLane="2i_0" departPos="4.10" departSpeed="0.00" departDelay="0.00" arrival="138.00" arrivalLane="3o_0" arrivalPos="492.80" arrivalSpeed="10.00" duration="92.00" routeLength="995.70" waitingTime="4.00" waitingCount="2" stopTime="0.00" timeLoss="21.76" rerouteNo="0" devices="tripinfo_NS_46" vType="car" speedFactor="1.01" vaporized=""/>
    <tripinfo id="NS_47" depart="49.00" departLane="2i_0" departPos="4.10" departSpeed="0.00" departDelay="2.00" arrival="139.00" arrivalLane="4o_0" arrivalPos="492.80" arrivalSpeed="10.52" duration="90.00" routeLength="990.53" waitingTime="2.00" waitingCount="1" stopTime="0.00" timeLoss="17.32" rerouteNo="0" devices="tripinfo_NS_47" vType="car" speedFactor="0.97" vaporized=""/>
    <tripinfo id="WE_70" depart="70.00" departLane="1i_0" departPos="4.10" departSpeed="0.00" departDelay="0.00" arrival="140.00" arrivalLane="3o_0" arrivalPos="492.80" arrivalSpeed="12.24" duration="70.00" routeLength="990.53" waitingTime="0.00" waitingCount="0" stopTime="0.00" timeLoss="7.24" rerouteNo="0" devices="tripinfo_WE_70" vType="car" speedFactor="1.13" vaporized=""/>
    <tripinfo id="EW_54" depart="54.00" departLane="4i_0" departPos="4.10" departSpeed="0.00" departDelay="0.00" arrival="146.00" arrivalLane="2o_0" arrivalPos="492.80" arrivalSpeed="9.44" duration="92.00" routeLength="995.70" waitingTime="0.00" waitingCount="0" stopTime="0.00" timeLoss="12.56" rerouteNo="0" devices="tripinfo_EW_54" vType="car" speedFactor="0.89" vaporized=""/>
    <tripinfo id="NS_59" depart="59.00" departLane="2i_0" departPos="4.10" departSpeed="0.00" departDelay="0.00" arrival="146.00" arrivalLane="1o_0" arrivalPos="492.80" arrivalSpeed="9.72" duration="87.00" routeLength="995.90" waitingTime="0.00" waitingCount="0" stopTime="0.00" timeLoss="9.35" rerouteNo="0" devices="tripinfo_NS_59" vType="car" speedFactor="0.92" vaporized=""/>
    <tripinfo id="SN_75" depart="75.00" departLane="3i_0" departPos="4.10" departSpeed="0.00" departDelay="0.00" arrival="146.00" arrivalLane="4o_0" arrivalPos="492.80" arrivalSpeed="12.31" duration="71.00" routeLength="995.90" waitingTime="0.00" waitingCount="0" stopTime="0.00" timeLoss="9.24" rerouteNo="0" devices="tripinfo_SN_75" vType="car" speedFactor="1.15" vaporized=""/>
    <tripinfo id="WE_60" depart="60.00" departLane="1i_0" departPos="4.10" departSpeed="0.00" departDelay="0.00" arrival="148.00" arrivalLane="2o_0" arrivalPos="492.80" arrivalSpeed="9.40" duration="88.00" routeLength="995.90" waitingTime="0.00" waitingCount="0" stopTime="0.00" timeLoss="13.28" rerouteNo="0" devices="tripinfo_WE_60" vType="car" speedFactor="0.95" vaporized=""/>
    <tripinfo id="EW_56" depart="57.00" departLane="4i_0" departPos="4.10" departSpeed="0.00" departDelay="1.00" arrival="154.00" arrivalLane="1o_0" arrivalPos="492.80" arrivalSpeed="8.67" duration="97.00" routeLength="990.53" waitingTime="0.00" waitingCount="0" stopTime="0.00" timeLoss="11.57" rerouteNo="0" devices="tripinfo_EW_56" vType="car" speedFactor="0.83" vaporized=""/>
    <tripinfo id="SN_57" depart="57.00" departLane="3i_0" departPos="4.10" departSpeed="0.00" departDelay="0.00" arrival="156.00" arrivalLane="1o_0" arrivalPos="492.80" arrivalSpeed="8.70" duration="99.00" routeLength="995.70" waitingTime="1.00" waitingCount="1" stopTime="0.00" timeLoss="17.60" rerouteNo="0" devices="tripinfo_SN_57" vType="car" speedFactor="0.87" vaporized=""/>
    <tripinfo id="WE_73" depart="73.00" departLane="1i_0" departPos="4.10" departSpeed="0.00" departDelay="0.00" arrival="158.00" arrivalLane="3o_0" arrivalPos="492.80" arrivalSpeed="9.15" duration="85.00" routeLength="990.53" waitingTime="0.00" waitingCount="0" stopTime="0.00" timeLoss="9.20" rerouteNo="0" devices="tripinfo_WE_73" vType="car" speedFactor="0.93" vaporized=""/>
    <tripinfo id="EW_74" depart="74.00" departLane="4i_0" departPos="10.10" departSpeed="0.00" departDelay="0.00" arrival="160.00" arrivalLane="3o_0" arrivalPos="492.80" arrivalSpeed="11.66" duration="86.00" routeLength="989.90" waitingTime="0.00" waitingCount="0" stopTime="0.00" timeLoss="20.08" rerouteNo="0" devices="tripinfo_EW_74" vType="truck" speedFactor="1.09" vaporized=""/>
    <tripinfo id="SN_80" depart="80.00" departLane="3i_0" departPos="4.10" departSpeed="0.00" departDelay="0.00" arrival="160.00" arrivalLane="4o_0" arrivalPos="492.80" arrivalSpeed="10.58" duration="80.00" routeLength="995.90" waitingTime="0.00" waitingCount="0" stopTime="0.00" timeLoss="8.65" rerouteNo="0" devices="tripinfo_SN_80" vType="car" speedFactor="0.99" vaporized=""/>
    <tripinfo id="NS_78" depart="78.00" departLane="2i_0" departPos="4.10" departSpeed="0.00" departDelay="0.00" arrival="163.00" arrivalLane="1o_0" arrivalPos="492.80" arrivalSpeed="10.95" duration="85.00" routeLength="995.90" waitingTime="1.00" waitingCount="1" stopTime="0.00" timeLoss="14.64" rerouteNo="0" devices="tripinfo_NS_78" vType="car" speedFactor="1.01" vaporized=""/>
    <tripinfo id="WE_81" depart="81.00" departLane="1i_0" departPos="4.10" departSpeed="0.00" departDelay="0.00" arrival="166.00" arrivalLane="3o_0" arrivalPos="492.80" arrivalSpeed="10.98" duration="85.00" routeLength="990.53" waitingTime="5.00" waitingCount="1" stopTime="0.00" timeLoss="16.12" rerouteNo="0" devices="tripinfo_WE_81" vType="car" speedFactor="1.02" vaporized=""/>
    <tripinfo id="EW_83" depart="83.00" departLane="4i_0" departPos="4.10" departSpeed="0.00" departDelay="0.00" arrival="167.00" arrivalLane="2o_0" arrivalPos="492.80" arrivalSpeed="10.19" duration="84.00" routeLength="995.70" waitingTime="0.00" waitingCount="0" stopTime="0.00" timeLoss="11.11" rerouteNo="0" devices="tripinfo_EW_83" vType="car" speedFactor="0.97" vaporized=""/>
    <tripinfo id="NS_79" depart="81.00" departLane="2i_0" departPos="4.10" departSpeed="0.00" departDelay="2.00" arrival="168.00" arrivalLane="3o_0" arrivalPos="492.80" arrivalSpeed="12.02" duration="87.00" routeLength="995.70" waitingTime="0.00" waitingCount="0" stopTime="0.00" timeLoss="26.46" rerouteNo="0" devices="tripinfo_NS_79" vType="car" speedFactor="1.17" vaporized=""/>
    <tripinfo id="SN_93" depart="93.00" departLane="3i_0" departPos="4.10" departSpeed="0.00" departDelay="0.00" arrival="168.00" arrivalLane="4o_0" arrivalPos="492.80" arrivalSpeed="11.45" duration="75.00" routeLength="995.90" waitingTime="0.00" waitingCount="0" stopTime="0.00" timeLoss="10.50" rerouteNo="0" devices="tripinfo_SN_93" vType="car" speedFactor="1.10" vaporized=""/>
    <tripinfo id="EW_89" depart="89.00" departLane="4i_0" departPos="4.10" departSpeed="0.00" departDelay="0.00" arrival="170.00" arrivalLane="3o_0" arrivalPos="492.80" arrivalSpeed="12.72" duration="81.00" routeLength="995.90" waitingTime="2.00" waitingCount="1" stopTime="0.00" timeLoss="20.52" rerouteNo="0" devices="tripinfo_EW_89" vType="car" speedFactor="1.18" vaporized=""/>
    <tripinfo id="SN_101" depart="101.00" departLane="3i_0" departPos="4.10" departSpeed="0.00" departDelay="0.00" arrival="180.00" arrivalLane="4o_0" arrivalPos="492.80" arrivalSpeed="10.45" duration="79.00" routeLength="995.90" waitingTime="0.00" waitingCount="0" stopTime="0.00" timeLoss="10.34" rerouteNo="0" devices="tripinfo_SN_101" vType="car" speedFactor="1.04" vaporized=""/>
    <tripinfo id="EW_94" depart="94.00" departLane="4i_0" departPos="4.10" departSpeed="0.00" departDelay="0.00" arrival="182.00" arrivalLane="1o_0" arrivalPos="492.80" arrivalSpeed="9.27" duration="88.00" routeLength="990.53" waitingTime="0.00" waitingCount="0" stopTime="0.00" timeLoss="9.60" rerouteNo="0" devices="tripinfo_EW_94" vType="car" speedFactor="0.90" vaporized=""/>
    <tripinfo id="WE_97" depart="97.00" departLane="1i_0" departPos="10.10" departSpeed="0.00" departDelay="0.00" arrival="182.00" arrivalLane="2o_0" arrivalPos="492.80" arrivalSpeed="10.77" duration="85.00" routeLength="989.90" waitingTime="0.00" waitingCount="0" stopTime="0.00" timeLoss="15.09" rerouteNo="0" devices="tripinfo_WE_97" vType="truck" speedFactor="1.02" vaporized=""/>
    <tripinfo id="NS_101" depart="101.00" departLane="2i_0" departPos="4.10" departSpeed="0.00" departDelay="0.00" arrival="184.00" arrivalLane="1o_0" arrivalPos="492.80" arrivalSpeed="11.27" duration="83.00" routeLength="995.90" waitingTime="0.00" waitingCount="0" stopTime="0.00" timeLoss="17.54" rerouteNo="0" devices="tripinfo_NS_101" vType="car" speedFactor="1.09" vaporized=""/>
    <tripinfo id="NS_109" depart="109.00" departLane="2i_0" departPos="4.10" departSpeed="0.00" departDelay="0.00" arrival="185.00" arrivalLane="1o_0" arrivalPos="492.80" arrivalSpeed="11.68" duration="76.00" routeLength="995.90" waitingTime="0.00" waitingCount="0" stopTime="0.00" timeLoss="11.04" rerouteNo="0" devices="tripinfo_NS_109" vType="car" speedFactor="1.09" vaporized=""/>
    <tripinfo id="SN_105" depart="105.00" departLane="3i_0" departPos="10.10" departSpeed="0.00" departDelay="0.00" arrival="187.00" arrivalLane="2o_0" arrivalPos="492.80" arrivalSpeed="11.34" duration="82.00" routeLength="984.53" waitingTime="0.00" waitingCount="0" stopTime="0.00" timeLoss="13.48" rerouteNo="0" devices="tripinfo_SN_105" vType="truck" speedFactor="1.02" vaporized=""/>
    <tripinfo id="WE_98" depart="101.00" departLane="1i_0" departPos="4.10" departSpeed="0.00" departDelay="3.00" arrival="188.00" arrivalLane="3o_0" arrivalPos="492.80" arrivalSpeed="10.36" duration="87.00" routeLength="990.53" waitingTime="0.00" waitingCount="0" stopTime="0.00" timeLoss="13.20" rerouteNo="0" devices="tripinfo_WE_98" vType="car" speedFactor="0.96" vaporized=""/>
    <tripinfo id="WE_113" depart="113.00" departLane="1i_0" departPos="4.10" departSpeed="0.00" departDelay="0.00" arrival="193.00" arrivalLane="2o_0" arrivalPos="492.80" arrivalSpeed="11.01" duration="80.00" routeLength="995.90" waitingTime="0.00" waitingCount="0" stopTime="0.00" timeLoss="8.58" rerouteNo="0" devices="tripinfo_WE_113" vType="car" speedFactor="1.00" vaporized=""/>
    <tripinfo id="NS_123" depart="123.00" departLane="2i_0" departPos="10.10" departSpeed="0.00" departDelay="0.00" arrival="203.00" arrivalLane="4o_0" arrivalPos="492.80" arrivalSpeed="11.56" duration="80.00" routeLength="984.53" waitingTime="0.00" waitingCount="0" stopTime="0.00" timeLoss="12.67" rerouteNo="0" devices="tripinfo_NS_123" vType="truck" speedFactor="1.05" vaporized=""/>
    <tripinfo id="NS_116" depart="116.00" departLane="2i_0" departPos="4.10" departSpeed="0.00" departDelay="0.00" arrival="206.00" arrivalLane="1o_0" arrivalPos="492.80" arrivalSpeed="9.26" duration="90.00" routeLength="995.90" waitingTime="0.00" waitingCount="0" stopTime="0.00" timeLoss="9.26" rerouteNo="0" devices="tripinfo_NS_116" vType="car" speedFactor="0.88" vaporized=""/>
    <tripinfo id="EW_118" depart="118.00" departLane="4i_0" departPos="4.10" departSpeed="0.00" departDelay="0.00" arrival="208.00" arrivalLane="1o_0" arrivalPos="492.80" arrivalSpeed="12.05" duration="90.00" routeLength="990.53" waitingTime="3.00" waitingCount="1" stopTime="0.00" timeLoss="29.28" rerouteNo="0" devices="tripinfo_EW_118" vType="car" speedFactor="1.17" vaporized=""/>
    <tripinfo id="WE_117" depart="117.00" departLane="1i_0" departPos="4.10" departSpeed="0.00" departDelay="0.00" arrival="209.00" arrivalLane="2o_0" arrivalPos="492.80" arrivalSpeed="9.36" duration="92.00" routeLength="995.90" waitingTime="0.00" waitingCount="0" stopTime="0.00" timeLoss="8.25" rerouteNo="0" devices="tripinfo_WE_117" vType="car" speedFactor="0.85" vaporized=""/>
    <tripinfo id="SN_120" depart="120.00" departLane="3i_0" departPos="4.10" departSpeed="0.00" departDelay="0.00" arrival="210.00" arrivalLane="1o_0" arrivalPos="492.80" arrivalSpeed="10.46" duration="90.00" routeLength="995.70" waitingTime="0.00" waitingCount="0" stopTime="0.00" timeLoss="19.98" rerouteNo="0" devices="tripinfo_SN_120" vType="car" speedFactor="1.02" vaporized=""/>
    <tripinfo id="SN_117" depart="117.00" departLane="3i_0" departPos="4.10" departSpeed="0.00" departDelay="0.00" arrival="211.00" arrivalLane="2o_0" arrivalPos="492.80" arrivalSpeed="9.15" duration="94.00" routeLength="990.53" waitingTime="0.00" waitingCount="0" stopTime="0.00" timeLoss="11.83" rerouteNo="0" devices="tripinfo_SN_117" vType="car" speedFactor="0.85" vaporized=""/>
    <tripinfo id="EW_126" depart="126.00" departLane="4i_0" departPos="4.10" departSpeed="0.00" departDelay="0.00" arrival="212.00" arrivalLane="3o_0" arrivalPos="492.80" arrivalSpeed="10.19" duration="86.00" routeLength="995.90" waitingTime="0.00" waitingCount="0" stopTime="0.00" timeLoss="15.26" rerouteNo="0" devices="tripinfo_EW_126" vType="car" speedFactor="1.00" vaporized=""/>
    <tripinfo id="EW_115" depart="115.00" departLane="4i_0" departPos="4.10" departSpeed="0.00" departDelay="0.00" arrival="213.00" arrivalLane="2o_0" arrivalPos="492.80" arrivalSpeed="9.70" duration="98.00" routeLength="995.70" waitingTime="4.00" waitingCount="1" stopTime="0.00" timeLoss="19.47" rerouteNo="0" devices="tripinfo_EW_115" vType="car" speedFactor="0.90" vaporized=""/>
    <tripinfo id="SN_129" depart="129.00" departLane="3i_0" departPos="4.10" departSpeed="0.00" departDelay="0.00" arrival="215.00" arrivalLane="2o_0" arrivalPos="492.80" arrivalSpeed="9.95" duration="86.00" routeLength="990.53" waitingTime="1.00" waitingCount="1" stopTime="0.00" timeLoss="15.20" rerouteNo="0" devices="tripinfo_SN_129" vType="car" speedFactor="1.00" vaporized=""/>
    <tripinfo id="EW_144" depart="146.00" departLane="4i_0" departPos="4.10" departSpeed="0.00" departDelay="2.00" arrival="222.00" arrivalLane="3o_0" arrivalPos="492.80" arrivalSpeed="11.51" duration="76.00" routeLength="995.90" waitingTime="0.00" waitingCount="0" stopTime="0.00" timeLoss="10.29" rerouteNo="0" devices="tripinfo_EW_144" vType="car" speedFactor="1.08" vaporized=""/>
    <tripinfo id="NS_143" depart="143.00" departLane="2i_0" departPos="4.10" departSpeed="0.00" departDelay="0.00" arrival="224.00" arrivalLane="4o_0" arrivalPos="492.80" arrivalSpeed="10.62" duration="81.00" routeLength="990.53" waitingTime="0.00" waitingCount="0" stopTime="0.00" timeLoss="8.13" rerouteNo="0" devices="tripinfo_NS_143" vType="car" speedFactor="0.97" vaporized=""/>
    <tripinfo id="SN_130" depart="132.00" departLane="3i_0" departPos="4.10" departSpeed="0.00" departDelay="2.00" arrival="225.00" arrivalLane="1o_0" arrivalPos="492.80" arrivalSpeed="8.77" duration="93.00" routeLength="995.70" waitingTime="0.00" waitingCount="0" stopTime="0.00" timeLoss="14.08" rerouteNo="0" devices="tripinfo_SN_130" vType="car" speedFactor="0.90" vaporized=""/>
    <tripinfo id="SN_132" depart="136.00" departLane="3i_0" departPos="4.10" departSpeed="0.00" departDelay="4.00" arrival="226.00" arrivalLane="4o_0" arrivalPos="492.80" arrivalSpeed="12.63" duration="90.00" routeLength="995.90" waitingTime="4.00" waitingCount="1" stopTime="0.00" timeLoss="27.48" rerouteNo="0" devices="tripinfo_SN_132" vType="car" speedFactor="1.14" vaporized=""/>
    <tripinfo id="SN_133" depart="140.00" departLane="3i_0" departPos="4.10" departSpeed="0.00" departDelay="7.00" arrival="231.00" arrivalLane="4o_0" arrivalPos="492.80" arrivalSpeed="10.53" duration="91.00" routeLength="995.90" waitingTime="4.00" waitingCount="2" stopTime="0.00" timeLoss="21.97" rerouteNo="0" devices="tripinfo_SN_133" vType="car" speedFactor="1.02" vaporized=""/>
    <tripinfo id="SN_150" depart="150.00" departLane="3i_0" departPos="4.10" departSpeed="0.00" departDelay="0.00" arrival="233.00" arrivalLane="4o_0" arrivalPos="492.80" arrivalSpeed="11.55" duration="83.00" routeLength="995.90" waitingTime="1.00" waitingCount="1" stopTime="0.00" timeLoss="19.64" rerouteNo="0" devices="tripinfo_SN_150" vType="car" speedFactor="1.12" vaporized=""/>
    <tripinfo id="SN_152" depart="152.00" departLane="3i_0" departPos="4.10" departSpeed="0.00" departDelay="0.00" arrival="238.00" arrivalLane="2o_0" arrivalPos="492.80" arrivalSpeed="10.85" duration="86.00" routeLength="990.53" waitingTime="0.00" waitingCount="0" stopTime="0.00" timeLoss="16.28" rerouteNo="0" devices="tripinfo_SN_152" vType="car" speedFactor="1.02" vaporized=""/>
    <tripinfo id="EW_161" depart="161.00" departLane="4i_0" departPos="4.10" departSpeed="0.00" departDelay="0.00" arrival="241.00" arrivalLane="1o_0" arrivalPos="492.80" arrivalSpeed="10.00" duration="80.00" routeLength="990.53" waitingTime="0.00" waitingCount="0" stopTime="0.00" timeLoss="8.31" rerouteNo="0" devices="tripinfo_EW_161" vType="car" speedFactor="0.99" vaporized=""/>
    <tripinfo id="NS_161" depart="161.00" departLane="2i_0" departPos="4.10" departSpeed="0.00" departDelay="0.00" arrival="247.00" arrivalLane="4o_0" arrivalPos="492.80" arrivalSpeed="9.41" duration="86.00" routeLength="990.53" waitingTime="0.00" waitingCount="0" stopTime="0.00" timeLoss="10.61" rerouteNo="0" devices="tripinfo_NS_161" vType="car" speedFactor="0.94" vaporized=""/>
    <tripinfo id="EW_168" depart="168.00" departLane="4i_0" departPos="4.10" departSpeed="0.00" departDelay="0.00" arrival="258.00" arrivalLane="3o_0" arrivalPos="492.80" arrivalSpeed="9.74" duration="90.00" routeLength="995.90" waitingTime="0.00" waitingCount="0" stopTime="0.00" timeLoss="12.15" rerouteNo="0" devices="tripinfo_EW_168" vType="car" speedFactor="0.91" vaporized=""/>
    <tripinfo id="WE_177" depart="177.00" departLane="1i_0" departPos="4.10" departSpeed="0.00" departDelay="0.00" arrival="260.00" arrivalLane="2o_0" arrivalPos="492.80" arrivalSpeed="11.52" duration="83.00" routeLength="995.90" waitingTime="1.00" waitingCount="1" stopTime="0.00" timeLoss="14.78" rerouteNo="0" devices="tripinfo_WE_177" vType="car" speedFactor="1.04" vaporized=""/>
    <tripinfo id="SN_167" depart="170.00" departLane="3i_0" departPos="10.10" departSpeed="0.00" departDelay="3.00" arrival="261.00" arrivalLane="1o_0" arrivalPos="492.80" arrivalSpeed="10.12" duration="91.00" routeLength="989.70" waitingTime="0.00" waitingCount="0" stopTime="0.00" timeLoss="15.80" rerouteNo="0" devices="tripinfo_SN_167" vType="truck" speedFactor="0.94" vaporized=""/>
    <tripinfo id="NS_175" depart="175.00" departLane="2i_0" departPos="4.10" departSpeed="0.00" departDelay="0.00" arrival="264.00" arrivalLane="4o_0" arrivalPos="492.80" arrivalSpeed="10.12" duration="89.00" routeLength="990.53" waitingTime="2.00" waitingCount="1" stopTime="0.00" timeLoss="12.02" rerouteNo="0" devices="tripinfo_NS_175" vType="car" speedFactor="0.91" vaporized=""/>
    <tripinfo id="SN_178" depart="178.00" departLane="3i_0" departPos="4.10" departSpeed="0.00" departDelay="0.00" arrival="266.00" arrivalLane="4o_0" arrivalPos="492.80" arrivalSpeed="10.77" duration="88.00" routeLength="995.90" waitingTime="0.00" waitingCount="0" stopTime="0.00" timeLoss="18.57" rerouteNo="0" devices="tripinfo_SN_178" vType="car" speedFactor="1.02" vaporized=""/>
    <tripinfo id="WE_179" depart="180.00" departLane="1i_0" departPos="4.10" departSpeed="0.00" departDelay="1.00" arrival="267.00" arrivalLane="2o_0" arrivalPos="492.80" arrivalSpeed="10.53" duration="87.00" routeLength="995.90" waitingTime="0.00" waitingCount="0" stopTime="0.00" timeLoss="17.95" rerouteNo="0" devices="tripinfo_WE_179" vType="car" speedFactor="1.02" vaporized=""/>
    <tripinfo id="EW_191" depart="191.00" departLane="4i_0" departPos="4.10" departSpeed="0.00" departDelay="0.00" arrival="267.00" arrivalLane="1o_0" arrivalPos="492.80" arrivalSpeed="11.40" duration="76.00" routeLength="990.53" waitingTime="0.00" waitingCount="0" stopTime="0.00" timeLoss="8.76" rerouteNo="0" devices="tripinfo_EW_191" vType="car" speedFactor="1.06" vaporized=""/>
    <tripinfo id="NS_187" depart="187.00" departLane="2i_0" departPos="4.10" departSpeed="0.00" departDelay="0.00" arrival="272.00" arrivalLane="4o_0" arrivalPos="492.80" arrivalSpeed="9.27" duration="85.00" routeLength="990.53" waitingTime="0.00" waitingCount="0" stopTime="0.00" timeLoss="9.38" rerouteNo="0" devices="tripinfo_NS_187" vType="car" speedFactor="0.94" vaporized=""/>
    <tripinfo id="SN_182" depart="182.00" departLane="3i_0" departPos="4.10" departSpeed="0.00" departDelay="0.00" arrival="273.00" arrivalLane="4o_0" arrivalPos="492.80" arrivalSpeed="10.25" duration="91.00" routeLength="995.90" waitingTime="1.00" waitingCount="1" stopTime="0.00" timeLoss="18.43" rerouteNo="0" devices="tripinfo_SN_182" vType="car" speedFactor="0.97" vaporized=""/>
    <tripinfo id="WE_192" depart="192.00" departLane="1i_0" departPos="4.10" departSpeed="0.00" departDelay="0.00" arrival="276.00" arrivalLane="2o_0" arrivalPos="492.80" arrivalSpeed="9.69" duration="84.00" routeLength="995.90" waitingTime="0.00" waitingCount="0" stopTime="0.00" timeLoss="9.20" rerouteNo="0" devices="tripinfo_WE_192" vType="car" speedFactor="0.96" vaporized=""/>
    <tripinfo id="NS_195" depart="195.00" departLane="2i_0" departPos="4.10" departSpeed="0.00" departDelay="0.00" arrival="278.00" arrivalLane="4o_0" arrivalPos="492.80" arrivalSpeed="10.66" duration="83.00" routeLength="990.53" waitingTime="1.00" waitingCount="1" stopTime="0.00" timeLoss="11.52" rerouteNo="0" devices="tripinfo_NS_195" vType="car" speedFactor="0.98" vaporized=""/>