<?xml version="1.0" encoding="UTF-8"?>

<!-- generated on 2024-05-04 21:00:06 by Eclipse SUMO sumo Version 1.19.0
<configuration xmlns:xsi="http://www.w3.org/2001/XMLSchema-instance" xsi:noNamespaceSchemaLocation="http://sumo.dlr.de/xsd/sumoConfiguration.xsd">

    <input>
        <net-file value="test5.net.xml"/>
        <route-files value="route_gen.rou.xml"/>
    </input>

    <output>
        <tripinfo-output value="tripinfo_epi924.xml"/>
    </output>

    <report>
        <no-warnings value="true"/>
    </report>

    <traci_server>
        <remote-port value="39823"/>
    </traci_server>

</configuration>
-->

<tripinfos xmlns:xsi="http://www.w3.org/2001/XMLSchema-instance" xsi:noNamespaceSchemaLocation="http://sumo.dlr.de/xsd/tripinfo_file.xsd">
    <tripinfo id="SN_3" depart="3.00" departLane="3i_0" departPos="4.10" departSpeed="0.00" departDelay="0.00" arrival="83.00" arrivalLane="1o_0" arrivalPos="492.80" arrivalSpeed="11.10" duration="80.00" routeLength="995.70" waitingTime="1.00" waitingCount="1" stopTime="0.00" timeLoss="12.84" rerouteNo="0" devices="tripinfo_SN_3" vType="car" speedFactor="1.06" vaporized=""/>
    <tripinfo id="SN_10" depart="10.00" departLane="3i_0" departPos="4.10" departSpeed="0.00" departDelay="0.00" arrival="84.00" arrivalLane="4o_0" arrivalPos="492.80" arrivalSpeed="11.90" duration="74.00" routeLength="995.90" waitingTime="0.00" waitingCount="0" stopTime="0.00" timeLoss="8.64" rerouteNo="0" devices="tripinfo_SN_10" vType="car" speedFactor="1.08" vaporized=""/>
    <tripinfo id="NS_7" depart="7.00" departLane="2i_0" departPos="4.10" departSpeed="0.00" departDelay="0.00" arrival="90.00" arrivalLane="3o_0" arrivalPos="492.80" arrivalSpeed="10.58" duration="83.00" routeLength="995.70" waitingTime="1.00" waitingCount="1" stopTime="0.00" timeLoss="12.83" rerouteNo="0" devices="tripinfo_NS_7" vType="car" speedFactor="1.01" vaporized=""/>
    <tripinfo id="SN_12" depart="13.00" departLane="3i_0" departPos="4.10" departSpeed="0.00" departDelay="1.00" arrival="92.00" arrivalLane="4o_0" arrivalPos="492.80" arrivalSpeed="10.79" duration="79.00" routeLength="995.90" waitingTime="0.00" waitingCount="0" stopTime="0.00" timeLoss="10.05" rerouteNo="0" devices="tripinfo_SN_12" vType="car" speedFactor="1.03" vaporized=""/>
    <tripinfo id="EW_5" depart="5.00" departLane="4i_0" departPos="4.10" departSpeed="0.00" departDelay="0.00" arrival="95.00" arrivalLane="2o_0" arrivalPos="492.80" arrivalSpeed="9.66" duration="90.00" routeLength="995.70" waitingTime="1.00" waitingCount="1" stopTime="0.00" timeLoss="14.17" rerouteNo="0" devices="tripinfo_EW_5" vType="car" speedFactor="0.94" vaporized=""/>
    <tripinfo id="SN_22" depart="22.00" departLane="3i_0" departPos="4.10" departSpeed="0.00" departDelay="0.00" arrival="102.00" arrivalLane="1o_0" arrivalPos="492.80" arrivalSpeed="10.55" duration="80.00" routeLength="995.70" waitingTime="0.00" waitingCount="0" stopTime="0.00" timeLoss="11.96" rerouteNo="0" devices="tripinfo_SN_22" vType="car" speedFactor="1.05" vaporized=""/>
    <tripinfo id="WE_24" depart="24.00" departLane="1i_0" departPos="4.10" departSpeed="0.00" departDelay="0.00" arrival="108.00" arrivalLane="2o_0" arrivalPos="492.80" arrivalSpeed="10.28" duration="84.00" routeLength="995.90" waitingTime="0.00" waitingCount="0" stopTime="0.00" timeLoss="8.19" rerouteNo="0" devices="tripinfo_WE_24" vType="car" speedFactor="0.94" vaporized=""/>
    <tripinfo id="SN_24" depart="25.00" departLane="3i_0" departPos="4.10" departSpeed="0.00" departDelay="1.00" arrival="110.00" arrivalLane="2o_0" arrivalPos="492.80" arrivalSpeed="11.91" duration="85.00" routeLength="990.53" waitingTime="2.00" waitingCount="1" stopTime="0.00" timeLoss="19.80" rerouteNo="0" devices="tripinfo_SN_24" vType="car" speedFactor="1.09" vaporized=""/>
    <tripinfo id="NS_17" depart="17.00" departLane="2i_0" departPos="10.10" departSpeed="0.00" departDelay="0.00" arrival="113.00" arrivalLane="1o_0" arrivalPos="492.80" arrivalSpeed="9.88" duration="96.00" routeLength="989.90" waitingTime="0.00" waitingCount="0" stopTime="0.00" timeLoss="19.02" rerouteNo="0" devices="tripinfo_NS_17" vType="truck" speedFactor="0.92" vaporized=""/>
    <tripinfo id="WE_25" depart="27.00" departLane="1i_0" departPos="4.10" departSpeed="0.00" departDelay="2.00" arrival="114.00" arrivalLane="4o_0" arrivalPos="492.80" arrivalSpeed="10.53" duration="87.00" routeLength="995.70" waitingTime="4.00" waitingCount="1" stopTime="0.00" timeLoss="18.15" rerouteNo="0" devices="tripinfo_WE_25" vType="car" speedFactor="1.03" vaporized=""/>
    <tripinfo id="EW_28" depart="28.00" departLane="4i_0" departPos="4.10" departSpeed="0.00" departDelay="0.00" arrival="119.00" arrivalLane="1o_0" arrivalPos="492.80" arrivalSpeed="11.55" duration="91.00" routeLength="990.53" waitingTime="5.00" waitingCount="3" stopTime="0.00" timeLoss="23.13" rerouteNo="0" devices="tripinfo_EW_28" vType="car" speedFactor="1.05" vaporized=""/>
    <tripinfo id="NS_24" depart="24.00" departLane="2i_0" departPos="4.10" departSpeed="0.00" departDelay="0.00" arrival="120.00" arrivalLane="3o_0" arrivalPos="492.80" arrivalSpeed="9.20" duration="96.00" routeLength="995.70" waitingTime="0.00" waitingCount="0" stopTime="0.00" timeLoss="13.43" rerouteNo="0" devices="tripinfo_NS_24" vType="car" speedFactor="0.86" vaporized=""/>
    <tripinfo id="EW_23" depart="23.00" departLane="4i_0" departPos="4.10" departSpeed="0.00" departDelay="0.00" arrival="125.00" arrivalLane="3o_0" arrivalPos="492.80" arrivalSpeed="8.66" duration="102.00" routeLength="995.90" waitingTime="6.00" waitingCount="4" stopTime="0.00" timeLoss="22.18" rerouteNo="0" devices="tripinfo_EW_23" vType="car" speedFactor="0.89" vaporized=""/>
    <tripinfo id="NS_30" depart="30.00" departLane="2i_0" departPos="4.10" departSpeed="0.00" departDelay="0.00" arrival="127.00" arrivalLane="3o_0" arrivalPos="492.80" arrivalSpeed="12.32" duration="97.00" routeLength="995.70" waitingTime="6.00" waitingCount="1" stopTime="0.00" timeLoss="33.43" rerouteNo="0" devices="tripinfo_NS_30" vType="car" speedFactor="1.12" vaporized=""/>
    <tripinfo id="SN_32" depart="32.00" departLane="3i_0" departPos="4.10" departSpeed="0.00" departDelay="0.00" arrival="128.00" arrivalLane="1o_0" arrivalPos="492.80" arrivalSpeed="9.79" duration="96.00" routeLength="995.70" waitingTime="9.00" waitingCount="1" stopTime="0.00" timeLoss="24.34" rerouteNo="0" devices="tripinfo_SN_32" vType="car" speedFactor="0.99" vaporized=""/>
    <tripinfo id="EW_39" depart="39.00" departLane="4i_0" departPos="4.10" departSpeed="0.00" departDelay="0.00" arrival="128.00" arrivalLane="2o_0" arrivalPos="492.80" arrivalSpeed="10.53" duration="89.00" routeLength="995.70" waitingTime="1.00" waitingCount="1" stopTime="0.00" timeLoss="18.39" rerouteNo="0" devices="tripinfo_EW_39" vType="car" speedFactor="1.01" vaporized=""/>
    <tripinfo id="NS_33" depart="33.00" departLane="2i_0" departPos="4.10" departSpeed="0.00" departDelay="0.00" arrival="129.00" arrivalLane="3o_0" arrivalPos="492.80" arrivalSpeed="9.36" duration="96.00" routeLength="995.70" waitingTime="5.00" waitingCount="1" stopTime="0.00" timeLoss="19.31" rerouteNo="0" devices="tripinfo_NS_33" vType="car" speedFactor="0.93" vaporized=""/>
    <tripinfo id="WE_34" depart="34.00" departLane="1i_0" departPos="4.10" departSpeed="0.00" departDelay="0.00" arrival="129.00" arrivalLane="4o_0" arrivalPos="492.80" arrivalSpeed="9.64" duration="95.00" routeLength="995.70" waitingTime="2.00" waitingCount="1" stopTime="0.00" timeLoss="14.41" rerouteNo="0" devices="tripinfo_WE_34" vType="car" speedFactor="0.88" vaporized=""/>
    <tripinfo id="NS_37" depart="41.00" departLane="2i_0" departPos="4.10" departSpeed="0.00" departDelay="4.00" arrival="130.00" arrivalLane="1o_0" arrivalPos="492.80" arrivalSpeed="12.54" duration="89.00" routeLength="995.90" waitingTime="0.00" waitingCount="0" stopTime="0.00" timeLoss="27.01" rerouteNo="0" devices="tripinfo_NS_37" vType="car" speedFactor="1.16" vaporized=""/>
    <tripinfo id="NS_35" depart="36.00" departLane="2i_0" departPos="4.10" departSpeed="0.00" departDelay="1.00" arrival="131.00" arrivalLane="4o_0" arrivalPos="492.80" arrivalSpeed="9.31" duration="95.00" routeLength="990.53" waitingTime="2.00" waitingCount="1" stopTime="0.00" timeLoss="20.20" rerouteNo="0" devices="tripinfo_NS_35" vType="car" speedFactor="0.94" vaporized=""/>
    <tripinfo id="NS_36" depart="39.00" departLane="2i_0" departPos="4.10" departSpeed="0.00" departDelay="3.00" arrival="133.00" arrivalLane="4o_0" arrivalPos="492.80" arrivalSpeed="9.61" duration="94.00" routeLength="990.53" waitingTime="2.00" waitingCount="1" stopTime="0.00" timeLoss="18.65" rerouteNo="0" devices="tripinfo_NS_36" vType="car" speedFactor="0.94" vaporized=""/>
    <tripinfo id="SN_38" depart="38.00" departLane="3i_0" departPos="4.10" departSpeed="0.00" departDelay="0.00" arrival="136.00" arrivalLane="2o_0" arrivalPos="492.80" arrivalSpeed="11.26" duration="98.00" routeLength="990.53" waitingTime="13.00" waitingCount="2" stopTime="0.00" timeLoss="28.46" rerouteNo="0" devices="tripinfo_SN_38" vType="car" speedFactor="1.02" vaporized=""/>
    <tripinfo id="EW_45" depart="45.00" departLane="4i_0" departPos="4.10" departSpeed="0.00" departDelay="0.00" arrival="137.00" arrivalLane="1o_0" arrivalPos="492.80" arrivalSpeed="9.71" duration="92.00" routeLength="990.53" waitingTime="6.00" waitingCount="1" stopTime="0.00" timeLoss="19.85" rerouteNo="0" devices="tripinfo_EW_45" vType="car" speedFactor="0.97" vaporized=""/>
    <tripinfo id="EW_69" depart="69.00" departLane="4i_0" departPos="4.10" departSpeed="0.00" departDelay="0.00" arrival="139.00" arrivalLane="1o_0" arrivalPos="492.80" arrivalSpeed="11.96" duration="70.00" routeLength="990.53" waitingTime="0.00" waitingCount="0" stopTime="0.00" timeLoss="9.93" rerouteNo="0" devices="tripinfo_EW_69" vType="car" speedFactor="1.18" vaporized=""/>
    <tripinfo id="NS_50" depart="50.00" departLane="2i_0" departPos="10.10" departSpeed="0.00" departDelay="0.00" arrival="144.00" arrivalLane="3o_0" arrivalPos="492.80" arrivalSpeed="9.88" duration="94.00" routeLength="989.70" waitingTime="0.00" waitingCount="0" stopTime="0.00" timeLoss="16.53" rerouteNo="0" devices="tripinfo_NS_50" vType="truck" speedFactor="0.91" vaporized=""/>
    <tripinfo id="EW_59" depart="59.00" departLane="4i_0" departPos="4.10" departSpeed="0.00" departDelay="0.00" arrival="147.00" arrivalLane="3o_0" arrivalPos="492.80" arrivalSpeed="9.36" duration="88.00" routeLength="995.90" waitingTime="0.00" waitingCount="0" stopTime="0.00" timeLoss="12.83" rerouteNo="0" devices="tripinfo_EW_59" vType="car" speedFactor="0.95" vaporized=""/>
    <tripinfo id="SN_48" depart="48.00" departLane="3i_0" departPos="4.10" departSpeed="0.00" departDelay="0.00" arrival="150.00" arrivalLane="4o_0" arrivalPos="492.80" arrivalSpeed="9.76" duration="102.00" routeLength="995.90" waitingTime="4.00" waitingCount="1" stopTime="0.00" timeLoss="22.12" rerouteNo="0" devices="tripinfo_SN_48" vType="car" speedFactor="0.89" vaporized=""/>
    <tripinfo id="SN_51" depart="51.00" departLane="3i_0" departPos="4.10" departSpeed="0.00" departDelay="0.00" arrival="153.00" arrivalLane="4o_0" arrivalPos="492.80" arrivalSpeed="10.08" duration="102.00" routeLength="995.90" waitingTime="2.00" waitingCount="1" stopTime="0.00" timeLoss="24.22" rerouteNo="0" devices="tripinfo_SN_51" vType="car" speedFactor="0.92" vaporized=""/>
    <tripinfo id="SN_64" depart="64.00" departLane="3i_0" departPos="4.10" departSpeed="0.00" departDelay="0.00" arrival="153.00" arrivalLane="2o_0" arrivalPos="492.80" arrivalSpeed="9.45" duration="89.00" routeLength="990.53" waitingTime="0.00" waitingCount="0" stopTime="0.00" timeLoss="13.04" rerouteNo="0" devices="tripinfo_SN_64" vType="car" speedFactor="0.93" vaporized=""/>
    <tripinfo id="NS_61" depart="61.00" departLane="2i_0" departPos="4.10" departSpeed="0.00" departDelay="0.00" arrival="155.00" arrivalLane="4o_0" arrivalPos="492.80" arrivalSpeed="12.44" duration="94.00" routeLength="990.53" waitingTime="4.00" waitingCount="1" stopTime="0.00" timeLoss="31.45" rerouteNo="0" devices="tripinfo_NS_61" vType="car" speedFactor="1.13" vaporized=""/>
    <tripinfo id="NS_51" depart="55.00" departLane="2i_0" departPos="10.10" departSpeed="0.00" departDelay="4.00" arrival="156.00" arrivalLane="1o_0" arrivalPos="492.80" arrivalSpeed="10.14" duration="101.00" routeLength="989.90" waitingTime="3.00" waitingCount="2" stopTime="0.00" timeLoss="25.47" rerouteNo="0" devices="tripinfo_NS_51" vType="truck" speedFactor="0.94" vaporized=""/>
    <tripinfo id="NS_70" depart="70.00" departLane="2i_0" departPos="4.10" departSpeed="0.00" departDelay="0.00" arrival="157.00" arrivalLane="3o_0" arrivalPos="492.80" arrivalSpeed="12.17" duration="87.00" routeLength="995.70" waitingTime="2.00" waitingCount="1" stopTime="0.00" timeLoss="25.37" rerouteNo="0" devices="tripinfo_NS_70" vType="car" speedFactor="1.15" vaporized=""/>
    <tripinfo id="EW_78" depart="78.00" departLane="4i_0" departPos="4.10" departSpeed="0.00" departDelay="0.00" arrival="158.00" arrivalLane="1o_0" arrivalPos="492.80" arrivalSpeed="10.47" duration="80.00" routeLength="990.53" waitingTime="0.00" waitingCount="0" stopTime="0.00" timeLoss="9.77" rerouteNo="0" devices="tripinfo_EW_78" vType="car" speedFactor="1.01" vaporized=""/>
    <tripinfo id="WE_82" depart="83.00" departLane="1i_0" departPos="10.10" departSpeed="0.00" departDelay="1.00" arrival="172.00" arrivalLane="4o_0" arrivalPos="492.80" arrivalSpeed="11.73" duration="89.00" routeLength="989.70" waitingTime="1.00" waitingCount="1" stopTime="0.00" timeLoss="22.40" rerouteNo="0" devices="tripinfo_WE_82" vType="truck" speedFactor="1.09" vaporized=""/>
    <tripinfo id="NS_93" depart="95.00" departLane="2i_0" departPos="10.10" departSpeed="0.00" departDelay="2.00" arrival="179.00" arrivalLane="4o_0" arrivalPos="492.80" arrivalSpeed="10.72" duration="84.00" routeLength="984.53" waitingTime="0.00" waitingCount="0" stopTime="0.00" timeLoss="13.87" rerouteNo="0" devices="tripinfo_NS_93" vType="truck" speedFactor="1.01" vaporized=""/>
    <tripinfo id="NS_105" depart="105.00" departLane="2i_0" departPos="4.10" departSpeed="0.00" departDelay="0.00" arrival="181.00" arrivalLane="4o_0" arrivalPos="492.80" arrivalSpeed="11.18" duration="76.00" routeLength="990.53" waitingTime="0.00" waitingCount="0" stopTime="0.00" timeLoss="11.74" rerouteNo="0" devices="tripinfo_NS_105" vType="car" speedFactor="1.10" vaporized=""/>
    <tripinfo id="SN_86" depart="86.00" departLane="3i_0" departPos="10.10" departSpeed="0.00" departDelay="0.00" arrival="182.00" arrivalLane="1o_0" arrivalPos="492.80" arrivalSpeed="10.65" duration="96.00" routeLength="989.70" waitingTime="2.00" waitingCount="2" stopTime="0.00" timeLoss="24.86" rerouteNo="0" devices="tripinfo_SN_86" vType="truck" speedFactor="1.00" vaporized=""/>
    <tripinfo id="SN_101" depart="101.00" departLane="3i_0" departPos="4.10" departSpeed="0.00" departDelay="0.00" arrival="184.00" arrivalLane="1o_0" arrivalPos="492.80" arrivalSpeed="12.90" duration="83.00" routeLength="995.70" waitingTime="0.00" waitingCount="0" stopTime="0.00" timeLoss="22.57" rerouteNo="0" devices="tripinfo_SN_101" vType="car" speedFactor="1.18" vaporized=""/>
    <tripinfo id="WE_94" depart="94.00" departLane="1i_0" departPos="4.10" departSpeed="0.00" departDelay="0.00" arrival="189.00" arrivalLane="2o_0" arrivalPos="492.80" arrivalSpeed="10.37" duration="95.00" routeLength="995.90" waitingTime="3.00" waitingCount="2" stopTime="0.00" timeLoss="21.79" rerouteNo="0" devices="tripinfo_WE_94" vType="car" speedFactor="0.97" vaporized=""/>
    <tripinfo id="WE_106" depart="106.00" departLane="1i_0" departPos="10.10" departSpeed="0.00" departDelay="0.00" arrival="194.00" arrivalLane="3o_0" arrivalPos="492.80" arrivalSpeed="10.09" duration="88.00" routeLength="984.53" waitingTime="0.00" waitingCount="0" stopTime="0.00" timeLoss="14.37" rerouteNo="0" devices="tripinfo_WE_106" vType="truck" speedFactor="0.95" vaporized=""/>
    <tripinfo id="NS_109" depart="110.00" departLane="2i_0" departPos="4.10" departSpeed="0.00" departDelay="1.00" arrival="197.00" arrivalLane="3o_0" arrivalPos="492.80" arrivalSpeed="12.07" duration="87.00" routeLength="995.70" waitingTime="1.00" waitingCount="1" stopTime="0.00" timeLoss="21.55" rerouteNo="0" devices="tripinfo_NS_109" vType="car" speedFactor="1.09" vaporized=""/>
    <tripinfo id="WE_107" depart="110.00" departLane="1i_0" departPos="4.10" departSpeed="0.00" departDelay="3.00" arrival="198.00" arrivalLane="3o_0" arrivalPos="492.80" arrivalSpeed="11.28" duration="88.00" routeLength="990.53" waitingTime="0.00" waitingCount="0" stopTime="0.00" timeLoss="19.79" rerouteNo="0" devices="tripinfo_WE_107" vType="car" speedFactor="1.03" vaporized=""/>
    <tripinfo id="NS_128" depart="128.00" departLane="2i_0" departPos="4.10" departSpeed="0.00" departDelay="0.00" arrival="209.00" arrivalLane="3o_0" arrivalPos="492.80" arrivalSpeed="10.75" duration="81.00" routeLength="995.70" waitingTime="0.00" waitingCount="0" stopTime="0.00" timeLoss="13.05" rerouteNo="0" devices="tripinfo_NS_128" vType="car" speedFactor="1.04" vaporized=""/>
    <tripinfo id="WE_108" depart="113.00" departLane="1i_0" departPos="4.10" departSpeed="0.00" departDelay="5.00" arrival="210.00" arrivalLane="2o_0" arrivalPos="492.80" arrivalSpeed="10.24" duration="97.00" routeLength="995.90" waitingTime="2.00" waitingCount="1" stopTime="0.00" timeLoss="22.74" rerouteNo="0" devices="tripinfo_WE_108" vType="car" speedFactor="0.96" vaporized=""/>
    <tripinfo id="WE_116" depart="116.00" departLane="1i_0" departPos="10.10" departSpeed="0.00" departDelay="0.00" arrival="212.00" arrivalLane="4o_0" arrivalPos="492.80" arrivalSpeed="11.20" duration="96.00" routeLength="989.70" waitingTime="1.00" waitingCount="1" stopTime="0.00" timeLoss="26.12" rerouteNo="0" devices="tripinfo_WE_116" vType="truck" speedFactor="1.02" vaporized=""/>
    <tripinfo id="SN_134" depart="134.00" departLane="3i_0" departPos="4.10" departSpeed="0.00" departDelay="0.00" arrival="213.00" arrivalLane="2o_0" arrivalPos="492.80" arrivalSpeed="10.01" duration="79.00" routeLength="990.53" waitingTime="0.00" waitingCount="0" stopTime="0.00" timeLoss="8.23" rerouteNo="0" devices="tripinfo_SN_134" vType="car" speedFactor="1.00" vaporized=""/>
    <tripinfo id="WE_129" depart="130.00" departLane="1i_0" departPos="4.10" departSpeed="0.00" departDelay="1.00" arrival="215.00" arrivalLane="2o_0" arrivalPos="492.80" arrivalSpeed="10.95" duration="85.00" routeLength="995.90" waitingTime="0.00" waitingCount="0" stopTime="0.00" timeLoss="19.78" rerouteNo="0" devices="tripinfo_WE_129" vType="car" speedFactor="1.09" vaporized=""/>
    <tripinfo id="WE_139" depart="139.00" departLane="1i_0" departPos="4.10" departSpeed="0.00" departDelay="0.00" arrival="226.00" arrivalLane="3o_0" arrivalPos="492.80" arrivalSpeed="9.90" duration="87.00" routeLength="990.53" waitingTime="0.00" waitingCount="0" stopTime="0.00" timeLoss="7.87" rerouteNo="0" devices="tripinfo_WE_139" vType="car" speedFactor="0.90" vaporized=""/>
    <tripinfo id="EW_146" depart="146.00" departLane="4i_0" departPos="4.10" departSpeed="0.00" departDelay="0.00" arrival="227.00" arrivalLane="3o_0" arrivalPos="492.80" arrivalSpeed="11.27" duration="81.00" routeLength="995.90" waitingTime="0.00" waitingCount="0" stopTime="0.00" timeLoss="20.13" rerouteNo="0" devices="tripinfo_EW_146" vType="car" speedFactor="1.17" vaporized=""/>
    <tripinfo id="WE_143" depart="143.00" departLane="1i_0" departPos="4.10" departSpeed="0.00" departDelay="0.00" arrival="237.00" arrivalLane="4o_0" arrivalPos="492.80" arrivalSpeed="9.23" duration="94.00" routeLength="995.70" waitingTime="0.00" waitingCount="0" stopTime="0.00" timeLoss="10.87" rerouteNo="0" devices="tripinfo_WE_143" vType="car" speedFactor="0.85" vaporized=""/>
    <tripinfo id="NS_139" depart="139.00" departLane="2i_0" departPos="10.10" departSpeed="0.00" departDelay="0.00" arrival="239.00" arrivalLane="3o_0" arrivalPos="492.80" arrivalSpeed="9.85" duration="100.00" routeLength="989.70" waitingTime="1.00" waitingCount="1" stopTime="0.00" timeLoss="25.03" rerouteNo="0" devices="tripinfo_NS_139" vType="truck" speedFactor="0.94" vaporized=""/>
    <tripinfo id="WE_156" depart="156.00" departLane="1i_0" departPos="4.10" departSpeed="0.00" departDelay="0.00" arrival="242.00" arrivalLane="3o_0" arrivalPos="492.80" arrivalSpeed="10.19" duration="86.00" routeLength="990.53" waitingTime="0.00" waitingCount="0" stopTime="0.00" timeLoss="15.36" rerouteNo="0" devices="tripinfo_WE_156" vType="car" speedFactor="1.00" vaporized=""/>
    <tripinfo id="EW_150" depart="150.00" departLane="4i_0" departPos="4.10" departSpeed="0.00" departDelay="0.00" arrival="245.00" arrivalLane="2o_0" arrivalPos="492.80" arrivalSpeed="10.65" duration="95.00" routeLength="995.70" waitingTime="12.00" waitingCount="2" stopTime="0.00" timeLoss="25.00" rerouteNo="0" devices="tripinfo_EW_150" vType="car" speedFactor="1.02" vaporized=""/>
    <tripinfo id="EW_167" depart="167.00" departLane="4i_0" departPos="4.10" departSpeed="0.00" departDelay="0.00" arrival="246.00" arrivalLane="2o_0" arrivalPos="492.80" arrivalSpeed="11.89" duration="79.00" routeLength="995.70" waitingTime="2.00" waitingCount="1" stopTime="0.00" timeLoss="17.27" rerouteNo="0" devices="tripinfo_EW_167" vType="car" speedFactor="1.14" vaporized=""/>
    <tripinfo id="NS_142" depart="143.00" departLane="2i_0" departPos="4.10" departSpeed="0.00" departDelay="1.00" arrival="248.00" arrivalLane="1o_0" arrivalPos="492.80" arrivalSpeed="8.54" duration="105.00" routeLength="995.90" waitingTime="0.00" waitingCount="0" stopTime="0.00" timeLoss="21.44" rerouteNo="0" devices="tripinfo_NS_142" vType="car" speedFactor="0.85" vaporized=""/>
    <tripinfo id="NS_150" depart="150.00" departLane="2i_0" departPos="4.10" departSpeed="0.00" departDelay="0.00" arrival="249.00" arrivalLane="1o_0" arrivalPos="492.80" arrivalSpeed="10.42" duration="99.00" routeLength="995.90" waitingTime="0.00" waitingCount="0" stopTime="0.00" timeLoss="34.64" rerouteNo="0" devices="tripinfo_NS_150" vType="car" speedFactor="1.10" vaporized=""/>
    <tripinfo id="SN_156" depart="157.00" departLane="3i_0" departPos="10.10" departSpeed="0.00" departDelay="1.00" arrival="252.00" arrivalLane="1o_0" arrivalPos="492.80" arrivalSpeed="10.57" duration="95.00" routeLength="989.70" waitingTime="0.00" waitingCount="0" stopTime="0.00" timeLoss="24.24" rerouteNo="0" devices="tripinfo_SN_156" vType="truck" speedFactor="1.00" vaporized=""/>
    <tripinfo id="WE_166" depart="166.00" departLane="1i_0" departPos="4.10" departSpeed="0.00" departDelay="0.00" arrival="253.00" arrivalLane="3o_0" arrivalPos="492.80" arrivalSpeed="9.89" duration="87.00" routeLength="990.53" waitingTime="0.00" waitingCount="0" stopTime="0.00" timeLoss="8.37" rerouteNo="0" devices="tripinfo_WE_166" vType="car" speedFactor="0.90" vaporized=""/>
    <tripinfo id="EW_172" depart="172.00" departLane="4i_0" departPos="4.10" departSpeed="0.00" departDelay="0.00" arrival="254.00" arrivalLane="1o_0" arrivalPos="492.80" arrivalSpeed="10.44" duration="82.00" routeLength="990.53" waitingTime="0.00" waitingCount="0" stopTime="0.00" timeLoss="13.29" rerouteNo="0" devices="tripinfo_EW_172" vType="car" speedFactor="1.02" vaporized=""/>
    <tripinfo id="NS_173" depart="173.00" departLane="2i_0" departPos="4.10" departSpeed="0.00" departDelay="0.00" arrival="258.00" arrivalLane="3o_0" arrivalPos="492.80" arrivalSpeed="9.70" duration="85.00" routeLength="995.70" waitingTime="0.00" waitingCount="0" stopTime="0.00" timeLoss="12.04" rerouteNo="0" devices="tripinfo_NS_173" vType="car" speedFactor="0.97" vaporized=""/>
    <tripinfo id="SN_182" depart="182.00" departLane="3i_0" departPos="4.10" departSpeed="0.00" departDelay="0.00" arrival="258.00" arrivalLane="2o_0" arrivalPos="492.80" arrivalSpeed="12.01" duration="76.00" routeLength="990.53" waitingTime="0.00" waitingCount="0" stopTime="0.00" timeLoss="13.21" rerouteNo="0" devices="tripinfo_SN_182" vType="car" speedFactor="1.12" vaporized=""/>
    <tripinfo id="SN_176" depart="176.00" departLane="3i_0" departPos="4.10" departSpeed="0.00" departDelay="0.00" arrival="259.00" arrivalLane="1o_0" arrivalPos="492.80" arrivalSpeed="11.00" duration="83.00" routeLength="995.70" waitingTime="4.00" waitingCount="1" stopTime="0.00" timeLoss="17.18" rerouteNo="0" devices="tripinfo_SN_176" vType="car" speedFactor="1.08" vaporized=""/>
    <tripinfo id="EW_186" depart="186.00" departLane="4i_0" departPos="4.10" departSpeed="0.00" departDelay="0.00" arrival="265.00" arrivalLane="3o_0" arrivalPos="492.80" arrivalSpeed="10.41" duration="79.00" routeLength="995.90" waitingTime="0.00" waitingCount="0" stopTime="0.00" timeLoss="9.14" rerouteNo="0" devices="tripinfo_EW_186" vType="car" speedFactor="1.02" vaporized=""/>
    <tripinfo id="EW_188" depart="189.00" departLane="4i_0" departPos="4.10" departSpeed="0.00" departDelay="1.00" arrival="272.00" arrivalLane="1o_0" arrivalPos="492.80" arrivalSpeed="10.11" duration="83.00" routeLength="990.53" waitingTime="2.00" waitingCount="1" stopTime="0.00" timeLoss="11.67" rerouteNo="0" devices="tripinfo_EW_188" vType="car" speedFactor="0.99" vaporized=""/>
    <tripinfo id="WE_198" depart="198.00" departLane="1i_0" departPos="4.10" departSpeed="0.00" departDelay="0.00" arrival="288.00" arrivalLane="2o_0" arrivalPos="492.80" arrivalSpeed="9.78" duration="90.00" routeLength="995.90" waitingTime="0.00" waitingCount="0" stopTime="0.00" timeLoss="9.61" rerouteNo="0" devices="tripinfo_WE_198" vType="car" speedFactor="0.88" vaporized=""/>
    <tripinfo id="SN_197" depart="198.00" departLane="3i_0" departPos="10.10" departSpeed="0.00" departDelay="1.00" arrival="293.00" arrivalLane="1o_0" arrivalPos="492.80" arrivalSpeed="10.34" duration="95.00" routeLength="989.70" waitingTime="1.00" waitingCount="1" stopTime="0.00" timeLoss="21.79" rerouteNo="0" devices="tripinfo_SN_197" vType="truck" speedFactor="0.97" vaporized=""/>
    <tripinfo id="EW_214" depart="214.00" departLane="4i_0" departPos="4.10" departSpeed="0.00" departDelay="0.00" arrival="297.00" arrivalLane="1o_0" arrivalPos="492.80" arrivalSpeed="10.29" duration="83.00" routeLength="990.53" waitingTime="0.00" waitingCount="0" stopTime="0.00" timeLoss="10.20" rerouteNo="0" devices="tripinfo_EW_214" vType="car" speedFactor="0.97" vaporized=""/>
    <tripinfo id="WE_202" depart="202.00" departLane="1i_0" departPos="10.10" departSpeed="0.00" departDelay="0.00" arrival="301.00" arrivalLane="4o_0" arrivalPos="492.80" arrivalSpeed="10.00" duration="99.00" routeLength="989.70" waitingTime="3.00" waitingCount="1" stopTime="0.00" timeLoss="24.81" rerouteNo="0" devices="tripinfo_WE_202" vType="truck" speedFactor="0.95" vaporized=""/>
    <tripinfo id="NS_207" depart="207.00" departLane="2i_0" departPos="4.10" departSpeed="0.00" departDelay="0.00" arrival="301.00" arrivalLane="3o_0" arrivalPos="492.80" arrivalSpeed="9.04" duration="94.00" routeLength="995.70" waitingTime="2.00" waitingCount="1" stopTime="0.00" timeLoss="16.83" rerouteNo="0" devices="tripinfo_NS_207" vType="car" speedFactor="0.91" vaporized=""/>
    <tripinfo id="NS_210" depart="210.00" departLane="2i_0" departPos="4.10" departSpeed="0.00" departDelay="0.00" arrival="301.00" arrivalLane="1o_0" arrivalPos="492.80" arrivalSpeed="10.34" duration="91.00" routeLength="995.90" waitingTime="2.00" waitingCount="1" stopTime="0.00" timeLoss="21.98" rerouteNo="0" devices="tripinfo_NS_210" vType="car" speedFactor="1.02" vaporized=""/>
    <tripinfo id="WE_210" depart="210.00" departLane="1i_0" departPos="4.10" departSpeed="0.00" departDelay="0.00" arrival="305.00" arrivalLane="4o_0" arrivalPos="492.80" arrivalSpeed="10.19" duration="95.00" routeLength="995.70" waitingTime="2.00" waitingCount="2" stopTime="0.00" timeLoss="25.36" rerouteNo="0" devices="tripinfo_WE_210" vType="car" speedFactor="1.02" vaporized=""/>
    <tripinfo id="SN_209" depart="209.00" departLane="3i_0" departPos="4.10" departSpeed="0.00" departDelay="0.00" arrival="307.00" arrivalLane="4o_0" arrivalPos="492.80" arrivalSpeed="11.01" duration="98.00" routeLength="995.90" waitingTime="11.00" waitingCount="2" stopTime="0.00" timeLoss="29.55" rerouteNo="0" devices="tripinfo_SN_209" vType="car" speedFactor="1.04" vaporized=""/>
    <tripinfo id="EW_224" depart="224.00" departLane="4i_0" departPos="4.10" departSpeed="0.00" departDelay="0.00" arrival="308.00" arrivalLane="3o_0" arrivalPos="492.80" arrivalSpeed="9.34" duration="84.00" routeLength="995.90" waitingTime="0.00" waitingCount="0" stopTime="0.00" timeLoss="9.74" rerouteNo="0" devices="tripinfo_EW_224" vType="car" speedFactor="0.96" vaporized=""/>
    <tripinfo id="WE_215" depart="215.00" departLane="1i_0" departPos="4.10" departSpeed="0.00" departDelay="0.00" arrival="314.00" arrivalLane="2o_0" arrivalPos="492.80" arrivalSpeed="9.59" duration="99.00" routeLength="995.90" waitingTime="2.00" waitingCount="2" stopTime="0.00" timeLoss="23.20" rerouteNo="0" devices="tripinfo_WE_215" vType="car" speedFactor="0.94" vaporized=""/>
    <tripinfo id="NS_217" depart="217.00" departLane="2i_0" departPos="4.10" departSpeed="0.00" departDelay="0.00" arrival="314.00" arrivalLane="3o_0" arrivalPos="492.80" arrivalSpeed="11.41" duration="97.00" routeLength="995.70" waitingTime="8.00" waitingCount="2" stopTime="0.00" timeLoss="29.64" rerouteNo="0" devices="tripinfo_NS_217" vType="car" speedFactor="1.06" vaporized=""/>
    <tripinfo id="EW_227" depart="227.00" departLane="4i_0" departPos="4.10" departSpeed="0.00" departDelay="0.00" arrival="316.00" arrivalLane="2o_0" arrivalPos="492.80" arrivalSpeed="9.88" duration="89.00" routeLength="995.70" waitingTime="2.00" waitingCount="1" stopTime="0.00" timeLoss="16.29" rerouteNo="0" devices="tripinfo_EW_227" vType="car" speedFactor="0.98" vaporized=""/>