<?xml version="1.0" encoding="UTF-8"?>

<!-- generated on 2024-05-04 19:31:37 by Eclipse SUMO sumo Version 1.19.0
<configuration xmlns:xsi="http://www.w3.org/2001/XMLSchema-instance" xsi:noNamespaceSchemaLocation="http://sumo.dlr.de/xsd/sumoConfiguration.xsd">

    <input>
        <net-file value="test5.net.xml"/>
        <route-files value="route_gen.rou.xml"/>
    </input>

    <output>
        <tripinfo-output value="tripinfo_epi593.xml"/>
    </output>

    <report>
        <no-warnings value="true"/>
    </report>

    <traci_server>
        <remote-port value="41093"/>
    </traci_server>

</configuration>
-->

<tripinfos xmlns:xsi="http://www.w3.org/2001/XMLSchema-instance" xsi:noNamespaceSchemaLocation="http://sumo.dlr.de/xsd/tripinfo_file.xsd">
    <tripinfo id="NS_5" depart="5.00" departLane="2i_0" departPos="4.10" departSpeed="0.00" departDelay="0.00" arrival="84.00" arrivalLane="4o_0" arrivalPos="492.80" arrivalSpeed="11.01" duration="79.00" routeLength="990.53" waitingTime="0.00" waitingCount="0" stopTime="0.00" timeLoss="8.65" rerouteNo="0" devices="tripinfo_NS_5" vType="car" speedFactor="1.01" vaporized=""/>
    <tripinfo id="NS_7" depart="8.00" departLane="2i_0" departPos="4.10" departSpeed="0.00" departDelay="1.00" arrival="86.00" arrivalLane="3o_0" arrivalPos="492.80" arrivalSpeed="11.25" duration="78.00" routeLength="995.70" waitingTime="0.00" waitingCount="0" stopTime="0.00" timeLoss="9.06" rerouteNo="0" devices="tripinfo_NS_7" vType="car" speedFactor="1.03" vaporized=""/>
    <tripinfo id="WE_2" depart="2.00" departLane="1i_0" departPos="4.10" departSpeed="0.00" departDelay="0.00" arrival="89.00" arrivalLane="4o_0" arrivalPos="492.80" arrivalSpeed="11.13" duration="87.00" routeLength="995.70" waitingTime="5.00" waitingCount="2" stopTime="0.00" timeLoss="20.12" rerouteNo="0" devices="tripinfo_WE_2" vType="car" speedFactor="1.06" vaporized=""/>
    <tripinfo id="SN_5" depart="6.00" departLane="3i_0" departPos="4.10" departSpeed="0.00" departDelay="1.00" arrival="96.00" arrivalLane="4o_0" arrivalPos="492.80" arrivalSpeed="11.05" duration="90.00" routeLength="995.90" waitingTime="5.00" waitingCount="2" stopTime="0.00" timeLoss="24.48" rerouteNo="0" devices="tripinfo_SN_5" vType="car" speedFactor="1.08" vaporized=""/>
    <tripinfo id="EW_8" depart="8.00" departLane="4i_0" departPos="10.10" departSpeed="0.00" departDelay="0.00" arrival="97.00" arrivalLane="1o_0" arrivalPos="492.80" arrivalSpeed="9.99" duration="89.00" routeLength="984.53" waitingTime="0.00" waitingCount="0" stopTime="0.00" timeLoss="12.06" rerouteNo="0" devices="tripinfo_EW_8" vType="truck" speedFactor="0.92" vaporized=""/>
    <tripinfo id="EW_11" depart="12.00" departLane="4i_0" departPos="4.10" departSpeed="0.00" departDelay="1.00" arrival="97.00" arrivalLane="3o_0" arrivalPos="492.80" arrivalSpeed="11.07" duration="85.00" routeLength="995.90" waitingTime="0.00" waitingCount="0" stopTime="0.00" timeLoss="17.28" rerouteNo="0" devices="tripinfo_EW_11" vType="car" speedFactor="1.05" vaporized=""/>
    <tripinfo id="SN_4" depart="4.00" departLane="3i_0" departPos="4.10" departSpeed="0.00" departDelay="0.00" arrival="102.00" arrivalLane="1o_0" arrivalPos="492.80" arrivalSpeed="10.37" duration="98.00" routeLength="995.70" waitingTime="8.00" waitingCount="2" stopTime="0.00" timeLoss="21.88" rerouteNo="0" devices="tripinfo_SN_4" vType="car" speedFactor="0.94" vaporized=""/>
    <tripinfo id="WE_20" depart="20.00" departLane="1i_0" departPos="4.10" departSpeed="0.00" departDelay="0.00" arrival="104.00" arrivalLane="2o_0" arrivalPos="492.80" arrivalSpeed="10.40" duration="84.00" routeLength="995.90" waitingTime="0.00" waitingCount="0" stopTime="0.00" timeLoss="8.45" rerouteNo="0" devices="tripinfo_WE_20" vType="car" speedFactor="0.94" vaporized=""/>
    <tripinfo id="EW_26" depart="26.00" departLane="4i_0" departPos="4.10" departSpeed="0.00" departDelay="0.00" arrival="105.00" arrivalLane="1o_0" arrivalPos="492.80" arrivalSpeed="11.95" duration="79.00" routeLength="990.53" waitingTime="3.00" waitingCount="1" stopTime="0.00" timeLoss="14.04" rerouteNo="0" devices="tripinfo_EW_26" vType="car" speedFactor="1.09" vaporized=""/>
    <tripinfo id="WE_31" depart="31.00" departLane="1i_0" departPos="4.10" departSpeed="0.00" departDelay="0.00" arrival="106.00" arrivalLane="3o_0" arrivalPos="492.80" arrivalSpeed="10.99" duration="75.00" routeLength="990.53" waitingTime="0.00" waitingCount="0" stopTime="0.00" timeLoss="7.72" rerouteNo="0" devices="tripinfo_WE_31" vType="car" speedFactor="1.05" vaporized=""/>
    <tripinfo id="SN_12" depart="12.00" departLane="3i_0" departPos="4.10" departSpeed="0.00" departDelay="0.00" arrival="112.00" arrivalLane="4o_0" arrivalPos="492.80" arrivalSpeed="9.62" duration="100.00" routeLength="995.90" waitingTime="2.00" waitingCount="1" stopTime="0.00" timeLoss="19.45" rerouteNo="0" devices="tripinfo_SN_12" vType="car" speedFactor="0.89" vaporized=""/>
    <tripinfo id="NS_33" depart="33.00" departLane="2i_0" departPos="4.10" departSpeed="0.00" departDelay="0.00" arrival="113.00" arrivalLane="4o_0" arrivalPos="492.80" arrivalSpeed="10.72" duration="80.00" routeLength="990.53" waitingTime="0.00" waitingCount="0" stopTime="0.00" timeLoss="17.27" rerouteNo="0" devices="tripinfo_NS_33" vType="car" speedFactor="1.12" vaporized=""/>
    <tripinfo id="SN_23" depart="23.00" departLane="3i_0" departPos="10.10" departSpeed="0.00" departDelay="0.00" arrival="117.00" arrivalLane="2o_0" arrivalPos="492.80" arrivalSpeed="10.07" duration="94.00" routeLength="984.53" waitingTime="0.00" waitingCount="0" stopTime="0.00" timeLoss="18.39" rerouteNo="0" devices="tripinfo_SN_23" vType="truck" speedFactor="0.93" vaporized=""/>
    <tripinfo id="SN_28" depart="28.00" departLane="3i_0" departPos="10.10" departSpeed="0.00" departDelay="0.00" arrival="120.00" arrivalLane="2o_0" arrivalPos="492.80" arrivalSpeed="10.79" duration="92.00" routeLength="984.53" waitingTime="1.00" waitingCount="1" stopTime="0.00" timeLoss="22.66" rerouteNo="0" devices="tripinfo_SN_28" vType="truck" speedFactor="1.01" vaporized=""/>
    <tripinfo id="WE_37" depart="37.00" departLane="1i_0" departPos="4.10" departSpeed="0.00" departDelay="0.00" arrival="125.00" arrivalLane="3o_0" arrivalPos="492.80" arrivalSpeed="9.76" duration="88.00" routeLength="990.53" waitingTime="1.00" waitingCount="1" stopTime="0.00" timeLoss="11.22" rerouteNo="0" devices="tripinfo_WE_37" vType="car" speedFactor="0.93" vaporized=""/>
    <tripinfo id="SN_42" depart="42.00" departLane="3i_0" departPos="4.10" departSpeed="0.00" departDelay="0.00" arrival="125.00" arrivalLane="2o_0" arrivalPos="492.80" arrivalSpeed="10.62" duration="83.00" routeLength="990.53" waitingTime="1.00" waitingCount="1" stopTime="0.00" timeLoss="13.98" rerouteNo="0" devices="tripinfo_SN_42" vType="car" speedFactor="1.02" vaporized=""/>
    <tripinfo id="WE_38" depart="40.00" departLane="1i_0" departPos="4.10" departSpeed="0.00" departDelay="2.00" arrival="131.00" arrivalLane="4o_0" arrivalPos="492.80" arrivalSpeed="9.36" duration="91.00" routeLength="995.70" waitingTime="0.00" waitingCount="0" stopTime="0.00" timeLoss="10.44" rerouteNo="0" devices="tripinfo_WE_38" vType="car" speedFactor="0.88" vaporized=""/>
    <tripinfo id="EW_36" depart="36.00" departLane="4i_0" departPos="10.10" departSpeed="0.00" departDelay="0.00" arrival="133.00" arrivalLane="3o_0" arrivalPos="492.80" arrivalSpeed="10.55" duration="97.00" routeLength="989.90" waitingTime="3.00" waitingCount="2" stopTime="0.00" timeLoss="25.64" rerouteNo="0" devices="tripinfo_EW_36" vType="truck" speedFactor="1.00" vaporized=""/>
    <tripinfo id="WE_39" depart="43.00" departLane="1i_0" departPos="4.10" departSpeed="0.00" departDelay="4.00" arrival="133.00" arrivalLane="4o_0" arrivalPos="492.80" arrivalSpeed="10.35" duration="90.00" routeLength="995.70" waitingTime="0.00" waitingCount="0" stopTime="0.00" timeLoss="14.60" rerouteNo="0" devices="tripinfo_WE_39" vType="car" speedFactor="0.94" vaporized=""/>
    <tripinfo id="WE_41" depart="46.00" departLane="1i_0" departPos="4.10" departSpeed="0.00" departDelay="5.00" arrival="135.00" arrivalLane="3o_0" arrivalPos="492.80" arrivalSpeed="12.13" duration="89.00" routeLength="990.53" waitingTime="3.00" waitingCount="1" stopTime="0.00" timeLoss="27.72" rerouteNo="0" devices="tripinfo_WE_41" vType="car" speedFactor="1.16" vaporized=""/>
    <tripinfo id="SN_46" depart="46.00" departLane="3i_0" departPos="4.10" departSpeed="0.00" departDelay="0.00" arrival="135.00" arrivalLane="4o_0" arrivalPos="492.80" arrivalSpeed="10.69" duration="89.00" routeLength="995.90" waitingTime="0.00" waitingCount="0" stopTime="0.00" timeLoss="15.96" rerouteNo="0" devices="tripinfo_SN_46" vType="car" speedFactor="0.97" vaporized=""/>
    <tripinfo id="SN_47" depart="49.00" departLane="3i_0" departPos="4.10" departSpeed="0.00" departDelay="2.00" arrival="138.00" arrivalLane="4o_0" arrivalPos="492.80" arrivalSpeed="8.84" duration="89.00" routeLength="995.90" waitingTime="0.00" waitingCount="0" stopTime="0.00" timeLoss="9.47" rerouteNo="0" devices="tripinfo_SN_47" vType="car" speedFactor="0.89" vaporized=""/>
    <tripinfo id="EW_39" depart="40.00" departLane="4i_0" departPos="4.10" departSpeed="0.00" departDelay="1.00" arrival="142.00" arrivalLane="3o_0" arrivalPos="492.80" arrivalSpeed="10.18" duration="102.00" routeLength="995.90" waitingTime="2.00" waitingCount="2" stopTime="0.00" timeLoss="26.03" rerouteNo="0" devices="tripinfo_EW_39" vType="car" speedFactor="0.94" vaporized=""/>
    <tripinfo id="EW_52" depart="52.00" departLane="4i_0" departPos="10.10" departSpeed="0.00" departDelay="0.00" arrival="143.00" arrivalLane="2o_0" arrivalPos="492.80" arrivalSpeed="10.65" duration="91.00" routeLength="989.70" waitingTime="0.00" waitingCount="0" stopTime="0.00" timeLoss="17.46" rerouteNo="0" devices="tripinfo_EW_52" vType="truck" speedFactor="0.96" vaporized=""/>
    <tripinfo id="WE_45" depart="49.00" departLane="1i_0" departPos="4.10" departSpeed="0.00" departDelay="4.00" arrival="144.00" arrivalLane="3o_0" arrivalPos="492.80" arrivalSpeed="10.49" duration="95.00" routeLength="990.53" waitingTime="2.00" waitingCount="2" stopTime="0.00" timeLoss="24.90" rerouteNo="0" devices="tripinfo_WE_45" vType="car" speedFactor="1.01" vaporized=""/>
    <tripinfo id="NS_49" depart="49.00" departLane="2i_0" departPos="4.10" departSpeed="0.00" departDelay="0.00" arrival="144.00" arrivalLane="1o_0" arrivalPos="492.80" arrivalSpeed="9.12" duration="95.00" routeLength="995.90" waitingTime="0.00" waitingCount="0" stopTime="0.00" timeLoss="9.39" rerouteNo="0" devices="tripinfo_NS_49" vType="car" speedFactor="0.83" vaporized=""/>
    <tripinfo id="WE_61" depart="61.00" departLane="1i_0" departPos="4.10" departSpeed="0.00" departDelay="0.00" arrival="146.00" arrivalLane="4o_0" arrivalPos="492.80" arrivalSpeed="13.06" duration="85.00" routeLength="995.70" waitingTime="3.00" waitingCount="1" stopTime="0.00" timeLoss="24.70" rerouteNo="0" devices="tripinfo_WE_61" vType="car" speedFactor="1.18" vaporized=""/>
    <tripinfo id="EW_63" depart="63.00" departLane="4i_0" departPos="4.10" departSpeed="0.00" departDelay="0.00" arrival="150.00" arrivalLane="3o_0" arrivalPos="492.80" arrivalSpeed="12.28" duration="87.00" routeLength="995.90" waitingTime="5.00" waitingCount="1" stopTime="0.00" timeLoss="25.92" rerouteNo="0" devices="tripinfo_EW_63" vType="car" speedFactor="1.15" vaporized=""/>
    <tripinfo id="SN_51" depart="52.00" departLane="3i_0" departPos="4.10" departSpeed="0.00" departDelay="1.00" arrival="153.00" arrivalLane="1o_0" arrivalPos="492.80" arrivalSpeed="8.44" duration="101.00" routeLength="995.70" waitingTime="5.00" waitingCount="1" stopTime="0.00" timeLoss="19.65" rerouteNo="0" devices="tripinfo_SN_51" vType="car" speedFactor="0.87" vaporized=""/>
    <tripinfo id="SN_59" depart="59.00" departLane="3i_0" departPos="4.10" departSpeed="0.00" departDelay="0.00" arrival="154.00" arrivalLane="2o_0" arrivalPos="492.80" arrivalSpeed="11.92" duration="95.00" routeLength="990.53" waitingTime="9.00" waitingCount="3" stopTime="0.00" timeLoss="32.07" rerouteNo="0" devices="tripinfo_SN_59" vType="car" speedFactor="1.13" vaporized=""/>
    <tripinfo id="NS_70" depart="70.00" departLane="2i_0" departPos="4.10" departSpeed="0.00" departDelay="0.00" arrival="155.00" arrivalLane="1o_0" arrivalPos="492.80" arrivalSpeed="11.01" duration="85.00" routeLength="995.90" waitingTime="0.00" waitingCount="0" stopTime="0.00" timeLoss="13.02" rerouteNo="0" devices="tripinfo_NS_70" vType="car" speedFactor="0.99" vaporized=""/>
    <tripinfo id="EW_60" depart="60.00" departLane="4i_0" departPos="4.10" departSpeed="0.00" departDelay="0.00" arrival="157.00" arrivalLane="1o_0" arrivalPos="492.80" arrivalSpeed="9.75" duration="97.00" routeLength="990.53" waitingTime="6.00" waitingCount="2" stopTime="0.00" timeLoss="20.74" rerouteNo="0" devices="tripinfo_EW_60" vType="car" speedFactor="0.93" vaporized=""/>
    <tripinfo id="SN_56" depart="56.00" departLane="3i_0" departPos="4.10" departSpeed="0.00" departDelay="0.00" arrival="158.00" arrivalLane="4o_0" arrivalPos="492.80" arrivalSpeed="9.70" duration="102.00" routeLength="995.90" waitingTime="10.00" waitingCount="3" stopTime="0.00" timeLoss="26.86" rerouteNo="0" devices="tripinfo_SN_56" vType="car" speedFactor="0.95" vaporized=""/>
    <tripinfo id="EW_68" depart="68.00" departLane="4i_0" departPos="4.10" departSpeed="0.00" departDelay="0.00" arrival="158.00" arrivalLane="1o_0" arrivalPos="492.80" arrivalSpeed="11.79" duration="90.00" routeLength="990.53" waitingTime="3.00" waitingCount="1" stopTime="0.00" timeLoss="29.73" rerouteNo="0" devices="tripinfo_EW_68" vType="car" speedFactor="1.17" vaporized=""/>
    <tripinfo id="EW_77" depart="77.00" departLane="4i_0" departPos="4.10" departSpeed="0.00" departDelay="0.00" arrival="160.00" arrivalLane="3o_0" arrivalPos="492.80" arrivalSpeed="13.05" duration="83.00" routeLength="995.90" waitingTime="2.00" waitingCount="1" stopTime="0.00" timeLoss="22.95" rerouteNo="0" devices="tripinfo_EW_77" vType="car" speedFactor="1.18" vaporized=""/>
    <tripinfo id="WE_65" depart="65.00" departLane="1i_0" departPos="4.10" departSpeed="0.00" departDelay="0.00" arrival="162.00" arrivalLane="2o_0" arrivalPos="492.80" arrivalSpeed="10.86" duration="97.00" routeLength="995.90" waitingTime="6.00" waitingCount="3" stopTime="0.00" timeLoss="26.09" rerouteNo="0" devices="tripinfo_WE_65" vType="car" speedFactor="1.01" vaporized=""/>
    <tripinfo id="WE_71" depart="71.00" departLane="1i_0" departPos="4.10" departSpeed="0.00" departDelay="0.00" arrival="164.00" arrivalLane="2o_0" arrivalPos="492.80" arrivalSpeed="9.62" duration="93.00" routeLength="995.90" waitingTime="2.00" waitingCount="1" stopTime="0.00" timeLoss="20.18" rerouteNo="0" devices="tripinfo_WE_71" vType="car" speedFactor="0.97" vaporized=""/>
    <tripinfo id="EW_79" depart="80.00" departLane="4i_0" departPos="4.10" departSpeed="0.00" departDelay="1.00" arrival="165.00" arrivalLane="3o_0" arrivalPos="492.80" arrivalSpeed="11.94" duration="85.00" routeLength="995.90" waitingTime="2.00" waitingCount="1" stopTime="0.00" timeLoss="20.69" rerouteNo="0" devices="tripinfo_EW_79" vType="car" speedFactor="1.10" vaporized=""/>
    <tripinfo id="SN_70" depart="70.00" departLane="3i_0" departPos="4.10" departSpeed="0.00" departDelay="0.00" arrival="174.00" arrivalLane="1o_0" arrivalPos="492.80" arrivalSpeed="11.24" duration="104.00" routeLength="995.70" waitingTime="11.00" waitingCount="4" stopTime="0.00" timeLoss="34.66" rerouteNo="0" devices="tripinfo_SN_70" vType="car" speedFactor="1.02" vaporized=""/>
    <tripinfo id="NS_90" depart="90.00" departLane="2i_0" departPos="4.10" departSpeed="0.00" departDelay="0.00" arrival="177.00" arrivalLane="3o_0" arrivalPos="492.80" arrivalSpeed="9.39" duration="87.00" routeLength="995.70" waitingTime="0.00" waitingCount="0" stopTime="0.00" timeLoss="13.15" rerouteNo="0" devices="tripinfo_NS_90" vType="car" speedFactor="0.96" vaporized=""/>
    <tripinfo id="EW_84" depart="84.00" departLane="4i_0" departPos="4.10" departSpeed="0.00" departDelay="0.00" arrival="178.00" arrivalLane="2o_0" arrivalPos="492.80" arrivalSpeed="9.00" duration="94.00" routeLength="995.70" waitingTime="0.00" waitingCount="0" stopTime="0.00" timeLoss="14.92" rerouteNo="0" devices="tripinfo_EW_84" vType="car" speedFactor="0.90" vaporized=""/>
    <tripinfo id="NS_101" depart="101.00" departLane="2i_0" departPos="4.10" departSpeed="0.00" departDelay="0.00" arrival="178.00" arrivalLane="4o_0" arrivalPos="492.80" arrivalSpeed="11.56" duration="77.00" routeLength="990.53" waitingTime="1.00" waitingCount="1" stopTime="0.00" timeLoss="11.83" rerouteNo="0" devices="tripinfo_NS_101" vType="car" speedFactor="1.09" vaporized=""/>
    <tripinfo id="EW_86" depart="89.00" departLane="4i_0" departPos="4.10" departSpeed="0.00" departDelay="3.00" arrival="179.00" arrivalLane="3o_0" arrivalPos="492.80" arrivalSpeed="10.75" duration="90.00" routeLength="995.90" waitingTime="1.00" waitingCount="1" stopTime="0.00" timeLoss="20.99" rerouteNo="0" devices="tripinfo_EW_86" vType="car" speedFactor="1.03" vaporized=""/>
    <tripinfo id="EW_102" depart="102.00" departLane="4i_0" departPos="4.10" departSpeed="0.00" departDelay="0.00" arrival="180.00" arrivalLane="2o_0" arrivalPos="492.80" arrivalSpeed="10.75" duration="78.00" routeLength="995.70" waitingTime="0.00" waitingCount="0" stopTime="0.00" timeLoss="9.71" rerouteNo="0" devices="tripinfo_EW_102" vType="car" speedFactor="1.04" vaporized=""/>
    <tripinfo id="EW_109" depart="109.00" departLane="4i_0" departPos="4.10" departSpeed="0.00" departDelay="0.00" arrival="188.00" arrivalLane="3o_0" arrivalPos="492.80" arrivalSpeed="10.94" duration="79.00" routeLength="995.90" waitingTime="2.00" waitingCount="1" stopTime="0.00" timeLoss="13.00" rerouteNo="0" devices="tripinfo_EW_109" vType="car" speedFactor="1.09" vaporized=""/>
    <tripinfo id="SN_109" depart="109.00" departLane="3i_0" departPos="4.10" departSpeed="0.00" departDelay="0.00" arrival="189.00" arrivalLane="2o_0" arrivalPos="492.80" arrivalSpeed="10.25" duration="80.00" routeLength="990.53" waitingTime="0.00" waitingCount="0" stopTime="0.00" timeLoss="9.16" rerouteNo="0" devices="tripinfo_SN_109" vType="car" speedFactor="1.00" vaporized=""/>
    <tripinfo id="EW_119" depart="119.00" departLane="4i_0" departPos="4.10" departSpeed="0.00" departDelay="0.00" arrival="191.00" arrivalLane="3o_0" arrivalPos="492.80" arrivalSpeed="12.10" duration="72.00" routeLength="995.90" waitingTime="0.00" waitingCount="0" stopTime="0.00" timeLoss="11.42" rerouteNo="0" devices="tripinfo_EW_119" vType="car" speedFactor="1.17" vaporized=""/>
    <tripinfo id="WE_109" depart="109.00" departLane="1i_0" departPos="4.10" departSpeed="0.00" departDelay="0.00" arrival="194.00" arrivalLane="4o_0" arrivalPos="492.80" arrivalSpeed="10.33" duration="85.00" routeLength="995.70" waitingTime="3.00" waitingCount="2" stopTime="0.00" timeLoss="16.59" rerouteNo="0" devices="tripinfo_WE_109" vType="car" speedFactor="1.04" vaporized=""/>
    <tripinfo id="SN_112" depart="113.00" departLane="3i_0" departPos="10.10" departSpeed="0.00" departDelay="1.00" arrival="199.00" arrivalLane="2o_0" arrivalPos="492.80" arrivalSpeed="10.40" duration="86.00" routeLength="984.53" waitingTime="0.00" waitingCount="0" stopTime="0.00" timeLoss="11.86" rerouteNo="0" devices="tripinfo_SN_112" vType="truck" speedFactor="0.95" vaporized=""/>
    <tripinfo id="EW_123" depart="123.00" departLane="4i_0" departPos="4.10" departSpeed="0.00" departDelay="0.00" arrival="205.00" arrivalLane="2o_0" arrivalPos="492.80" arrivalSpeed="11.24" duration="82.00" routeLength="995.70" waitingTime="0.00" waitingCount="0" stopTime="0.00" timeLoss="12.15" rerouteNo="0" devices="tripinfo_EW_123" vType="car" speedFactor="1.02" vaporized=""/>
    <tripinfo id="WE_125" depart="125.00" departLane="1i_0" departPos="4.10" departSpeed="0.00" departDelay="0.00" arrival="208.00" arrivalLane="3o_0" arrivalPos="492.80" arrivalSpeed="10.09" duration="83.00" routeLength="990.53" waitingTime="0.00" waitingCount="0" stopTime="0.00" timeLoss="12.64" rerouteNo="0" devices="tripinfo_WE_125" vType="car" speedFactor="1.00" vaporized=""/>
    <tripinfo id="NS_116" depart="117.00" departLane="2i_0" departPos="4.10" departSpeed="0.00" departDelay="1.00" arrival="209.00" arrivalLane="4o_0" arrivalPos="492.80" arrivalSpeed="8.59" duration="92.00" routeLength="990.53" waitingTime="0.00" waitingCount="0" stopTime="0.00" timeLoss="8.88" rerouteNo="0" devices="tripinfo_NS_116" vType="car" speedFactor="0.85" vaporized=""/>
    <tripinfo id="EW_128" depart="128.00" departLane="4i_0" departPos="4.10" departSpeed="0.00" departDelay="0.00" arrival="210.00" arrivalLane="3o_0" arrivalPos="492.80" arrivalSpeed="11.45" duration="82.00" routeLength="995.90" waitingTime="3.00" waitingCount="1" stopTime="0.00" timeLoss="19.47" rerouteNo="0" devices="tripinfo_EW_128" vType="car" speedFactor="1.14" vaporized=""/>
    <tripinfo id="WE_114" depart="114.00" departLane="1i_0" departPos="4.10" departSpeed="0.00" departDelay="0.00" arrival="214.00" arrivalLane="4o_0" arrivalPos="492.80" arrivalSpeed="8.55" duration="100.00" routeLength="995.70" waitingTime="4.00" waitingCount="1" stopTime="0.00" timeLoss="19.36" rerouteNo="0" devices="tripinfo_WE_114" vType="car" speedFactor="0.88" vaporized=""/>
    <tripinfo id="SN_117" depart="117.00" departLane="3i_0" departPos="4.10" departSpeed="0.00" departDelay="0.00" arrival="217.00" arrivalLane="1o_0" arrivalPos="492.80" arrivalSpeed="8.76" duration="100.00" routeLength="995.70" waitingTime="1.00" waitingCount="1" stopTime="0.00" timeLoss="17.43" rerouteNo="0" devices="tripinfo_SN_117" vType="car" speedFactor="0.85" vaporized=""/>
    <tripinfo id="NS_126" depart="126.00" departLane="2i_0" departPos="4.10" departSpeed="0.00" departDelay="0.00" arrival="219.00" arrivalLane="1o_0" arrivalPos="492.80" arrivalSpeed="10.37" duration="93.00" routeLength="995.90" waitingTime="1.00" waitingCount="1" stopTime="0.00" timeLoss="21.94" rerouteNo="0" devices="tripinfo_NS_126" vType="car" speedFactor="1.00" vaporized=""/>
    <tripinfo id="EW_137" depart="138.00" departLane="4i_0" departPos="4.10" departSpeed="0.00" departDelay="1.00" arrival="220.00" arrivalLane="3o_0" arrivalPos="492.80" arrivalSpeed="10.05" duration="82.00" routeLength="995.90" waitingTime="0.00" waitingCount="0" stopTime="0.00" timeLoss="8.86" rerouteNo="0" devices="tripinfo_EW_137" vType="car" speedFactor="0.97" vaporized=""/>
    <tripinfo id="EW_138" depart="141.00" departLane="4i_0" departPos="4.10" departSpeed="0.00" departDelay="3.00" arrival="221.00" arrivalLane="1o_0" arrivalPos="492.80" arrivalSpeed="11.17" duration="80.00" routeLength="990.53" waitingTime="0.00" waitingCount="0" stopTime="0.00" timeLoss="14.44" rerouteNo="0" devices="tripinfo_EW_138" vType="car" speedFactor="1.08" vaporized=""/>
    <tripinfo id="WE_139" depart="139.00" departLane="1i_0" departPos="4.10" departSpeed="0.00" departDelay="0.00" arrival="222.00" arrivalLane="3o_0" arrivalPos="492.80" arrivalSpeed="12.38" duration="83.00" routeLength="990.53" waitingTime="1.00" waitingCount="1" stopTime="0.00" timeLoss="19.64" rerouteNo="0" devices="tripinfo_WE_139" vType="car" speedFactor="1.12" vaporized=""/>
    <tripinfo id="SN_124" depart="125.00" departLane="3i_0" departPos="4.10" departSpeed="0.00" departDelay="1.00" arrival="224.00" arrivalLane="1o_0" arrivalPos="492.80" arrivalSpeed="11.48" duration="99.00" routeLength="995.70" waitingTime="13.00" waitingCount="1" stopTime="0.00" timeLoss="33.82" rerouteNo="0" devices="tripinfo_SN_124" vType="car" speedFactor="1.10" vaporized=""/>
    <tripinfo id="EW_145" depart="146.00" departLane="4i_0" departPos="4.10" departSpeed="0.00" departDelay="1.00" arrival="228.00" arrivalLane="2o_0" arrivalPos="492.80" arrivalSpeed="10.39" duration="82.00" routeLength="995.70" waitingTime="0.00" waitingCount="0" stopTime="0.00" timeLoss="12.14" rerouteNo="0" devices="tripinfo_EW_145" vType="car" speedFactor="1.02" vaporized=""/>
    <tripinfo id="NS_130" depart="130.00" departLane="2i_0" departPos="4.10" departSpeed="0.00" departDelay="0.00" arrival="231.00" arrivalLane="1o_0" arrivalPos="492.80" arrivalSpeed="10.68" duration="101.00" routeLength="995.90" waitingTime="14.00" waitingCount="2" stopTime="0.00" timeLoss="31.89" rerouteNo="0" devices="tripinfo_NS_130" vType="car" speedFactor="1.02" vaporized=""/>
    <tripinfo id="NS_149" depart="149.00" departLane="2i_0" departPos="4.10" departSpeed="0.00" departDelay="0.00" arrival="237.00" arrivalLane="4o_0" arrivalPos="492.80" arrivalSpeed="9.85" duration="88.00" routeLength="990.53" waitingTime="0.00" waitingCount="0" stopTime="0.00" timeLoss="12.55" rerouteNo="0" devices="tripinfo_NS_149" vType="car" speedFactor="0.94" vaporized=""/>
    <tripinfo id="WE_147" depart="147.00" departLane="1i_0" departPos="4.10" departSpeed="0.00" departDelay="0.00" arrival="239.00" arrivalLane="4o_0" arrivalPos="492.80" arrivalSpeed="10.51" duration="92.00" routeLength="995.70" waitingTime="5.00" waitingCount="1" stopTime="0.00" timeLoss="19.66" rerouteNo="0" devices="tripinfo_WE_147" vType="car" speedFactor="0.99" vaporized=""/>
    <tripinfo id="SN_126" depart="128.00" departLane="3i_0" departPos="4.10" departSpeed="0.00" departDelay="2.00" arrival="250.00" arrivalLane="4o_0" arrivalPos="492.80" arrivalSpeed="9.03" duration="122.00" routeLength="995.90" waitingTime="24.00" waitingCount="3" stopTime="0.00" timeLoss="43.40" rerouteNo="0" devices="tripinfo_SN_126" vType="car" speedFactor="0.90" vaporized=""/>
    <tripinfo id="NS_166" depart="166.00" departLane="2i_0" departPos="4.10" departSpeed="0.00" departDelay="0.00" arrival="252.00" arrivalLane="4o_0" arrivalPos="492.80" arrivalSpeed="11.46" duration="86.00" routeLength="990.53" waitingTime="1.00" waitingCount="1" stopTime="0.00" timeLoss="17.99" rerouteNo="0" devices="tripinfo_NS_166" vType="car" speedFactor="1.04" vaporized=""/>
    <tripinfo id="EW_162" depart="162.00" departLane="4i_0" departPos="4.10" departSpeed="0.00" departDelay="0.00" arrival="255.00" arrivalLane="2o_0" arrivalPos="492.80" arrivalSpeed="10.06" duration="93.00" routeLength="995.70" waitingTime="0.00" waitingCount="0" stopTime="0.00" timeLoss="15.28" rerouteNo="0" devices="tripinfo_EW_162" vType="car" speedFactor="0.91" vaporized=""/>
    <tripinfo id="SN_155" depart="155.00" departLane="3i_0" departPos="4.10" departSpeed="0.00" departDelay="0.00" arrival="260.00" arrivalLane="4o_0" arrivalPos="492.80" arrivalSpeed="9.50" duration="105.00" routeLength="995.90" waitingTime="8.00" waitingCount="2" stopTime="0.00" timeLoss="26.79" rerouteNo="0" devices="tripinfo_SN_155" vType="car" speedFactor="0.91" vaporized=""/>
    <tripinfo id="SN_151" depart="151.00" departLane="3i_0" departPos="4.10" departSpeed="0.00" departDelay="0.00" arrival="261.00" arrivalLane="1o_0" arrivalPos="492.80" arrivalSpeed="9.17" duration="110.00" routeLength="995.70" waitingTime="10.00" waitingCount="3" stopTime="0.00" timeLoss="29.22" rerouteNo="0" devices="tripinfo_SN_151" vType="car" speedFactor="0.88" vaporized=""/>
    <tripinfo id="SN_172" depart="172.00" departLane="3i_0" departPos="4.10" departSpeed="0.00" departDelay="0.00" arrival="262.00" arrivalLane="4o_0" arrivalPos="492.80" arrivalSpeed="10.71" duration="90.00" routeLength="995.90" waitingTime="0.00" waitingCount="0" stopTime="0.00" timeLoss="20.30" rerouteNo="0" devices="tripinfo_SN_172" vType="car" speedFactor="1.02" vaporized=""/>
    <tripinfo id="SN_178" depart="179.00" departLane="3i_0" departPos="4.10" departSpeed="0.00" departDelay="1.00" arrival="264.00" arrivalLane="4o_0" arrivalPos="492.80" arrivalSpeed="10.97" duration="85.00" routeLength="995.90" waitingTime="2.00" waitingCount="1" stopTime="0.00" timeLoss="15.13" rerouteNo="0" devices="tripinfo_SN_178" vType="car" speedFactor="1.02" vaporized=""/>
    <tripinfo id="NS_181" depart="181.00" departLane="2i_0" departPos="4.10" departSpeed="0.00" departDelay="0.00" arrival="269.00" arrivalLane="3o_0" arrivalPos="492.80" arrivalSpeed="10.77" duration="88.00" routeLength="995.70" waitingTime="3.00" waitingCount="1" stopTime="0.00" timeLoss="15.15" rerouteNo="0" devices="tripinfo_NS_181" vType="car" speedFactor="0.97" vaporized=""/>
    <tripinfo id="EW_184" depart="184.00" departLane="4i_0" departPos="10.10" departSpeed="0.00" departDelay="0.00" arrival="271.00" arrivalLane="1o_0" arrivalPos="492.80" arrivalSpeed="11.11" duration="87.00" routeLength="984.53" waitingTime="1.00" waitingCount="1" stopTime="0.00" timeLoss="18.72" rerouteNo="0" devices="tripinfo_EW_184" vType="truck" speedFactor="1.03" vaporized=""/>
    <tripinfo id="WE_198" depart="198.00" departLane="1i_0" departPos="4.10" departSpeed="0.00" departDelay="0.00" arrival="275.00" arrivalLane="3o_0" arrivalPos="492.80" arrivalSpeed="10.29" duration="77.00" routeLength="990.53" waitingTime="0.00" waitingCount="0" stopTime="0.00" timeLoss="8.84" rerouteNo="0" devices="tripinfo_WE_198" vType="car" speedFactor="1.03" vaporized=""/>
    <tripinfo id="NS_182" depart="184.00" departLane="2i_0" departPos="4.10" departSpeed="0.00" departDelay="2.00" arrival="279.00" arrivalLane="1o_0" arrivalPos="492.80" arrivalSpeed="9.95" duration="95.00" routeLength="995.90" waitingTime="3.00" waitingCount="2" stopTime="0.00" timeLoss="19.53" rerouteNo="0" devices="tripinfo_NS_182" vType="car" speedFactor="0.94" vaporized=""/>
    <tripinfo id="SN_204" depart="204.00" departLane="3i_0" departPos="4.10" departSpeed="0.00" departDelay="0.00" arrival="279.00" arrivalLane="4o_0" arrivalPos="492.80" arrivalSpeed="11.46" duration="75.00" routeLength="995.90" waitingTime="0.00" waitingCount="0" stopTime="0.00" timeLoss="9.14" rerouteNo="0" devices="tripinfo_SN_204" vType="car" speedFactor="1.09" vaporized=""/>