<?xml version="1.0" encoding="UTF-8"?>

<!-- generated on 2024-05-04 17:05:47 by Eclipse SUMO sumo Version 1.19.0
<configuration xmlns:xsi="http://www.w3.org/2001/XMLSchema-instance" xsi:noNamespaceSchemaLocation="http://sumo.dlr.de/xsd/sumoConfiguration.xsd">

    <input>
        <net-file value="test5.net.xml"/>
        <route-files value="route_gen.rou.xml"/>
    </input>

    <output>
        <tripinfo-output value="tripinfo_epi98.xml"/>
    </output>

    <report>
        <no-warnings value="true"/>
    </report>

    <traci_server>
        <remote-port value="49253"/>
    </traci_server>

</configuration>
-->

<tripinfos xmlns:xsi="http://www.w3.org/2001/XMLSchema-instance" xsi:noNamespaceSchemaLocation="http://sumo.dlr.de/xsd/tripinfo_file.xsd">
    <tripinfo id="WE_4" depart="4.00" departLane="1i_0" departPos="4.10" departSpeed="0.00" departDelay="0.00" arrival="79.00" arrivalLane="2o_0" arrivalPos="492.80" arrivalSpeed="11.21" duration="75.00" routeLength="995.90" waitingTime="0.00" waitingCount="0" stopTime="0.00" timeLoss="7.44" rerouteNo="0" devices="tripinfo_WE_4" vType="car" speedFactor="1.06" vaporized=""/>
    <tripinfo id="NS_5" depart="5.00" departLane="2i_0" departPos="4.10" departSpeed="0.00" departDelay="0.00" arrival="89.00" arrivalLane="1o_0" arrivalPos="492.80" arrivalSpeed="9.26" duration="84.00" routeLength="995.90" waitingTime="0.00" waitingCount="0" stopTime="0.00" timeLoss="8.68" rerouteNo="0" devices="tripinfo_NS_5" vType="car" speedFactor="0.94" vaporized=""/>
    <tripinfo id="WE_8" depart="8.00" departLane="1i_0" departPos="4.10" departSpeed="0.00" departDelay="0.00" arrival="92.00" arrivalLane="2o_0" arrivalPos="492.80" arrivalSpeed="10.22" duration="84.00" routeLength="995.90" waitingTime="5.00" waitingCount="1" stopTime="0.00" timeLoss="14.82" rerouteNo="0" devices="tripinfo_WE_8" vType="car" speedFactor="1.03" vaporized=""/>
    <tripinfo id="NS_6" depart="8.00" departLane="2i_0" departPos="4.10" departSpeed="0.00" departDelay="2.00" arrival="93.00" arrivalLane="1o_0" arrivalPos="492.80" arrivalSpeed="10.97" duration="85.00" routeLength="995.90" waitingTime="1.00" waitingCount="1" stopTime="0.00" timeLoss="14.52" rerouteNo="0" devices="tripinfo_NS_6" vType="car" speedFactor="1.01" vaporized=""/>
    <tripinfo id="NS_7" depart="11.00" departLane="2i_0" departPos="4.10" departSpeed="0.00" departDelay="4.00" arrival="97.00" arrivalLane="4o_0" arrivalPos="492.80" arrivalSpeed="11.92" duration="86.00" routeLength="990.53" waitingTime="1.00" waitingCount="1" stopTime="0.00" timeLoss="20.28" rerouteNo="0" devices="tripinfo_NS_7" vType="car" speedFactor="1.08" vaporized=""/>
    <tripinfo id="WE_15" depart="15.00" departLane="1i_0" departPos="4.10" departSpeed="0.00" departDelay="0.00" arrival="104.00" arrivalLane="4o_0" arrivalPos="492.80" arrivalSpeed="11.20" duration="89.00" routeLength="995.70" waitingTime="0.00" waitingCount="0" stopTime="0.00" timeLoss="21.16" rerouteNo="0" devices="tripinfo_WE_15" vType="car" speedFactor="1.05" vaporized=""/>
    <tripinfo id="EW_18" depart="18.00" departLane="4i_0" departPos="4.10" departSpeed="0.00" departDelay="0.00" arrival="104.00" arrivalLane="3o_0" arrivalPos="492.80" arrivalSpeed="9.88" duration="86.00" routeLength="995.90" waitingTime="0.00" waitingCount="0" stopTime="0.00" timeLoss="10.39" rerouteNo="0" devices="tripinfo_EW_18" vType="car" speedFactor="0.94" vaporized=""/>
    <tripinfo id="SN_30" depart="30.00" departLane="3i_0" departPos="4.10" departSpeed="0.00" departDelay="0.00" arrival="107.00" arrivalLane="1o_0" arrivalPos="492.80" arrivalSpeed="12.08" duration="77.00" routeLength="995.70" waitingTime="0.00" waitingCount="0" stopTime="0.00" timeLoss="13.60" rerouteNo="0" devices="tripinfo_SN_30" vType="car" speedFactor="1.12" vaporized=""/>
    <tripinfo id="WE_11" depart="11.00" departLane="1i_0" departPos="4.10" departSpeed="0.00" departDelay="0.00" arrival="110.00" arrivalLane="2o_0" arrivalPos="492.80" arrivalSpeed="9.14" duration="99.00" routeLength="995.90" waitingTime="0.00" waitingCount="0" stopTime="0.00" timeLoss="13.39" rerouteNo="0" devices="tripinfo_WE_11" vType="car" speedFactor="0.83" vaporized=""/>
    <tripinfo id="EW_21" depart="22.00" departLane="4i_0" departPos="10.10" departSpeed="0.00" departDelay="1.00" arrival="110.00" arrivalLane="3o_0" arrivalPos="492.80" arrivalSpeed="9.78" duration="88.00" routeLength="989.90" waitingTime="0.00" waitingCount="0" stopTime="0.00" timeLoss="11.28" rerouteNo="0" devices="tripinfo_EW_21" vType="truck" speedFactor="0.93" vaporized=""/>
    <tripinfo id="SN_23" depart="23.00" departLane="3i_0" departPos="4.10" departSpeed="0.00" departDelay="0.00" arrival="111.00" arrivalLane="2o_0" arrivalPos="492.80" arrivalSpeed="11.27" duration="88.00" routeLength="990.53" waitingTime="0.00" waitingCount="0" stopTime="0.00" timeLoss="23.40" rerouteNo="0" devices="tripinfo_SN_23" vType="car" speedFactor="1.09" vaporized=""/>
    <tripinfo id="NS_27" depart="27.00" departLane="2i_0" departPos="4.10" departSpeed="0.00" departDelay="0.00" arrival="113.00" arrivalLane="3o_0" arrivalPos="492.80" arrivalSpeed="10.61" duration="86.00" routeLength="995.70" waitingTime="3.00" waitingCount="2" stopTime="0.00" timeLoss="16.53" rerouteNo="0" devices="tripinfo_NS_27" vType="car" speedFactor="1.03" vaporized=""/>
    <tripinfo id="NS_28" depart="30.00" departLane="2i_0" departPos="4.10" departSpeed="0.00" departDelay="2.00" arrival="116.00" arrivalLane="1o_0" arrivalPos="492.80" arrivalSpeed="11.17" duration="86.00" routeLength="995.90" waitingTime="1.00" waitingCount="1" stopTime="0.00" timeLoss="17.95" rerouteNo="0" devices="tripinfo_NS_28" vType="car" speedFactor="1.05" vaporized=""/>
    <tripinfo id="WE_16" depart="17.00" departLane="1i_0" departPos="4.10" departSpeed="0.00" departDelay="1.00" arrival="121.00" arrivalLane="4o_0" arrivalPos="492.80" arrivalSpeed="9.21" duration="104.00" routeLength="995.70" waitingTime="2.00" waitingCount="2" stopTime="0.00" timeLoss="24.08" rerouteNo="0" devices="tripinfo_WE_16" vType="car" speedFactor="0.89" vaporized=""/>
    <tripinfo id="NS_31" depart="32.00" departLane="2i_0" departPos="4.10" departSpeed="0.00" departDelay="1.00" arrival="124.00" arrivalLane="4o_0" arrivalPos="492.80" arrivalSpeed="10.74" duration="92.00" routeLength="990.53" waitingTime="2.00" waitingCount="2" stopTime="0.00" timeLoss="20.70" rerouteNo="0" devices="tripinfo_NS_31" vType="car" speedFactor="0.99" vaporized=""/>
    <tripinfo id="EW_38" depart="38.00" departLane="4i_0" departPos="4.10" departSpeed="0.00" departDelay="0.00" arrival="127.00" arrivalLane="3o_0" arrivalPos="492.80" arrivalSpeed="9.47" duration="89.00" routeLength="995.90" waitingTime="0.00" waitingCount="0" stopTime="0.00" timeLoss="8.48" rerouteNo="0" devices="tripinfo_EW_38" vType="car" speedFactor="0.88" vaporized=""/>
    <tripinfo id="NS_33" depart="36.00" departLane="2i_0" departPos="4.10" departSpeed="0.00" departDelay="3.00" arrival="135.00" arrivalLane="4o_0" arrivalPos="492.80" arrivalSpeed="9.56" duration="99.00" routeLength="990.53" waitingTime="1.00" waitingCount="1" stopTime="0.00" timeLoss="23.15" rerouteNo="0" devices="tripinfo_NS_33" vType="car" speedFactor="0.93" vaporized=""/>
    <tripinfo id="EW_52" depart="52.00" departLane="4i_0" departPos="10.10" departSpeed="0.00" departDelay="0.00" arrival="135.00" arrivalLane="1o_0" arrivalPos="492.80" arrivalSpeed="10.99" duration="83.00" routeLength="984.53" waitingTime="0.00" waitingCount="0" stopTime="0.00" timeLoss="13.65" rerouteNo="0" devices="tripinfo_EW_52" vType="truck" speedFactor="1.01" vaporized=""/>
    <tripinfo id="NS_54" depart="54.00" departLane="2i_0" departPos="4.10" departSpeed="0.00" departDelay="0.00" arrival="140.00" arrivalLane="3o_0" arrivalPos="492.80" arrivalSpeed="10.81" duration="86.00" routeLength="995.70" waitingTime="1.00" waitingCount="1" stopTime="0.00" timeLoss="12.87" rerouteNo="0" devices="tripinfo_NS_54" vType="car" speedFactor="0.97" vaporized=""/>
    <tripinfo id="WE_40" depart="40.00" departLane="1i_0" departPos="10.10" departSpeed="0.00" departDelay="0.00" arrival="143.00" arrivalLane="4o_0" arrivalPos="492.80" arrivalSpeed="10.55" duration="103.00" routeLength="989.70" waitingTime="5.00" waitingCount="2" stopTime="0.00" timeLoss="30.27" rerouteNo="0" devices="tripinfo_WE_40" vType="truck" speedFactor="0.97" vaporized=""/>
    <tripinfo id="EW_57" depart="57.00" departLane="4i_0" departPos="4.10" departSpeed="0.00" departDelay="0.00" arrival="146.00" arrivalLane="1o_0" arrivalPos="492.80" arrivalSpeed="9.25" duration="89.00" routeLength="990.53" waitingTime="0.00" waitingCount="0" stopTime="0.00" timeLoss="9.66" rerouteNo="0" devices="tripinfo_EW_57" vType="car" speedFactor="0.89" vaporized=""/>
    <tripinfo id="SN_52" depart="52.00" departLane="3i_0" departPos="4.10" departSpeed="0.00" departDelay="0.00" arrival="149.00" arrivalLane="1o_0" arrivalPos="492.80" arrivalSpeed="10.46" duration="97.00" routeLength="995.70" waitingTime="13.00" waitingCount="1" stopTime="0.00" timeLoss="26.53" rerouteNo="0" devices="tripinfo_SN_52" vType="car" speedFactor="1.01" vaporized=""/>
    <tripinfo id="WE_45" depart="45.00" departLane="1i_0" departPos="4.10" departSpeed="0.00" departDelay="0.00" arrival="153.00" arrivalLane="3o_0" arrivalPos="492.80" arrivalSpeed="10.33" duration="108.00" routeLength="990.53" waitingTime="7.00" waitingCount="2" stopTime="0.00" timeLoss="32.63" rerouteNo="0" devices="tripinfo_WE_45" vType="car" speedFactor="0.94" vaporized=""/>
    <tripinfo id="EW_69" depart="69.00" departLane="4i_0" departPos="4.10" departSpeed="0.00" departDelay="0.00" arrival="154.00" arrivalLane="1o_0" arrivalPos="492.80" arrivalSpeed="10.11" duration="85.00" routeLength="990.53" waitingTime="0.00" waitingCount="0" stopTime="0.00" timeLoss="10.14" rerouteNo="0" devices="tripinfo_EW_69" vType="car" speedFactor="0.95" vaporized=""/>
    <tripinfo id="SN_68" depart="68.00" departLane="3i_0" departPos="4.10" departSpeed="0.00" departDelay="0.00" arrival="155.00" arrivalLane="2o_0" arrivalPos="492.80" arrivalSpeed="9.26" duration="87.00" routeLength="990.53" waitingTime="0.00" waitingCount="0" stopTime="0.00" timeLoss="9.57" rerouteNo="0" devices="tripinfo_SN_68" vType="car" speedFactor="0.92" vaporized=""/>
    <tripinfo id="NS_65" depart="65.00" departLane="2i_0" departPos="4.10" departSpeed="0.00" departDelay="0.00" arrival="160.00" arrivalLane="3o_0" arrivalPos="492.80" arrivalSpeed="9.63" duration="95.00" routeLength="995.70" waitingTime="0.00" waitingCount="0" stopTime="0.00" timeLoss="13.44" rerouteNo="0" devices="tripinfo_NS_65" vType="car" speedFactor="0.87" vaporized=""/>
    <tripinfo id="WE_48" depart="48.00" departLane="1i_0" departPos="4.10" departSpeed="0.00" departDelay="0.00" arrival="162.00" arrivalLane="3o_0" arrivalPos="492.80" arrivalSpeed="12.37" duration="114.00" routeLength="990.53" waitingTime="10.00" waitingCount="3" stopTime="0.00" timeLoss="52.52" rerouteNo="0" devices="tripinfo_WE_48" vType="car" speedFactor="1.16" vaporized=""/>
    <tripinfo id="SN_77" depart="77.00" departLane="3i_0" departPos="4.10" departSpeed="0.00" departDelay="0.00" arrival="164.00" arrivalLane="1o_0" arrivalPos="492.80" arrivalSpeed="9.56" duration="87.00" routeLength="995.70" waitingTime="0.00" waitingCount="0" stopTime="0.00" timeLoss="10.55" rerouteNo="0" devices="tripinfo_SN_77" vType="car" speedFactor="0.93" vaporized=""/>
    <tripinfo id="WE_74" depart="74.00" departLane="1i_0" departPos="4.10" departSpeed="0.00" departDelay="0.00" arrival="166.00" arrivalLane="4o_0" arrivalPos="492.80" arrivalSpeed="12.05" duration="92.00" routeLength="995.70" waitingTime="1.00" waitingCount="1" stopTime="0.00" timeLoss="29.08" rerouteNo="0" devices="tripinfo_WE_74" vType="car" speedFactor="1.13" vaporized=""/>
    <tripinfo id="EW_83" depart="83.00" departLane="4i_0" departPos="4.10" departSpeed="0.00" departDelay="0.00" arrival="168.00" arrivalLane="3o_0" arrivalPos="492.80" arrivalSpeed="10.85" duration="85.00" routeLength="995.90" waitingTime="1.00" waitingCount="1" stopTime="0.00" timeLoss="14.43" rerouteNo="0" devices="tripinfo_EW_83" vType="car" speedFactor="1.01" vaporized=""/>
    <tripinfo id="WE_58" depart="58.00" departLane="1i_0" departPos="10.10" departSpeed="0.00" departDelay="0.00" arrival="169.00" arrivalLane="2o_0" arrivalPos="492.80" arrivalSpeed="9.77" duration="111.00" routeLength="989.90" waitingTime="4.00" waitingCount="2" stopTime="0.00" timeLoss="33.90" rerouteNo="0" devices="tripinfo_WE_58" vType="truck" speedFactor="0.91" vaporized=""/>
    <tripinfo id="NS_88" depart="88.00" departLane="2i_0" departPos="4.10" departSpeed="0.00" departDelay="0.00" arrival="170.00" arrivalLane="3o_0" arrivalPos="492.80" arrivalSpeed="12.90" duration="82.00" routeLength="995.70" waitingTime="2.00" waitingCount="2" stopTime="0.00" timeLoss="21.00" rerouteNo="0" devices="tripinfo_NS_88" vType="car" speedFactor="1.17" vaporized=""/>
    <tripinfo id="SN_79" depart="80.00" departLane="3i_0" departPos="4.10" departSpeed="0.00" departDelay="1.00" arrival="171.00" arrivalLane="2o_0" arrivalPos="492.80" arrivalSpeed="12.41" duration="91.00" routeLength="990.53" waitingTime="3.00" waitingCount="2" stopTime="0.00" timeLoss="30.05" rerouteNo="0" devices="tripinfo_SN_79" vType="car" speedFactor="1.15" vaporized=""/>
    <tripinfo id="EW_94" depart="94.00" departLane="4i_0" departPos="4.10" departSpeed="0.00" departDelay="0.00" arrival="174.00" arrivalLane="2o_0" arrivalPos="492.80" arrivalSpeed="10.13" duration="80.00" routeLength="995.70" waitingTime="0.00" waitingCount="0" stopTime="0.00" timeLoss="10.44" rerouteNo="0" devices="tripinfo_EW_94" vType="car" speedFactor="1.02" vaporized=""/>
    <tripinfo id="SN_90" depart="90.00" departLane="3i_0" departPos="4.10" departSpeed="0.00" departDelay="0.00" arrival="178.00" arrivalLane="1o_0" arrivalPos="492.80" arrivalSpeed="10.12" duration="88.00" routeLength="995.70" waitingTime="2.00" waitingCount="1" stopTime="0.00" timeLoss="17.04" rerouteNo="0" devices="tripinfo_SN_90" vType="car" speedFactor="0.99" vaporized=""/>
    <tripinfo id="WE_79" depart="79.00" departLane="1i_0" departPos="4.10" departSpeed="0.00" departDelay="0.00" arrival="179.00" arrivalLane="4o_0" arrivalPos="492.80" arrivalSpeed="12.64" duration="100.00" routeLength="995.70" waitingTime="11.00" waitingCount="3" stopTime="0.00" timeLoss="39.88" rerouteNo="0" devices="tripinfo_WE_79" vType="car" speedFactor="1.18" vaporized=""/>
    <tripinfo id="NS_99" depart="99.00" departLane="2i_0" departPos="4.10" departSpeed="0.00" departDelay="0.00" arrival="180.00" arrivalLane="1o_0" arrivalPos="492.80" arrivalSpeed="12.71" duration="81.00" routeLength="995.90" waitingTime="0.00" waitingCount="0" stopTime="0.00" timeLoss="20.78" rerouteNo="0" devices="tripinfo_NS_99" vType="car" speedFactor="1.18" vaporized=""/>
    <tripinfo id="EW_103" depart="104.00" departLane="4i_0" departPos="4.10" departSpeed="0.00" departDelay="1.00" arrival="189.00" arrivalLane="2o_0" arrivalPos="492.80" arrivalSpeed="11.41" duration="85.00" routeLength="995.70" waitingTime="1.00" waitingCount="1" stopTime="0.00" timeLoss="15.69" rerouteNo="0" devices="tripinfo_EW_103" vType="car" speedFactor="1.03" vaporized=""/>
    <tripinfo id="WE_98" depart="98.00" departLane="1i_0" departPos="4.10" departSpeed="0.00" departDelay="0.00" arrival="192.00" arrivalLane="3o_0" arrivalPos="492.80" arrivalSpeed="10.46" duration="94.00" routeLength="990.53" waitingTime="5.00" waitingCount="2" stopTime="0.00" timeLoss="20.94" rerouteNo="0" devices="tripinfo_WE_98" vType="car" speedFactor="0.97" vaporized=""/>
    <tripinfo id="WE_100" depart="101.00" departLane="1i_0" departPos="4.10" departSpeed="0.00" departDelay="1.00" arrival="193.00" arrivalLane="2o_0" arrivalPos="492.80" arrivalSpeed="12.12" duration="92.00" routeLength="995.90" waitingTime="5.00" waitingCount="3" stopTime="0.00" timeLoss="27.84" rerouteNo="0" devices="tripinfo_WE_100" vType="car" speedFactor="1.10" vaporized=""/>
    <tripinfo id="SN_101" depart="101.00" departLane="3i_0" departPos="4.10" departSpeed="0.00" departDelay="0.00" arrival="195.00" arrivalLane="1o_0" arrivalPos="492.80" arrivalSpeed="9.36" duration="94.00" routeLength="995.70" waitingTime="2.00" waitingCount="1" stopTime="0.00" timeLoss="14.97" rerouteNo="0" devices="tripinfo_SN_101" vType="car" speedFactor="0.90" vaporized=""/>
    <tripinfo id="NS_107" depart="107.00" departLane="2i_0" departPos="4.10" departSpeed="0.00" departDelay="0.00" arrival="196.00" arrivalLane="1o_0" arrivalPos="492.80" arrivalSpeed="11.14" duration="89.00" routeLength="995.90" waitingTime="2.00" waitingCount="2" stopTime="0.00" timeLoss="24.48" rerouteNo="0" devices="tripinfo_NS_107" vType="car" speedFactor="1.09" vaporized=""/>
    <tripinfo id="SN_104" depart="104.00" departLane="3i_0" departPos="4.10" departSpeed="0.00" departDelay="0.00" arrival="197.00" arrivalLane="4o_0" arrivalPos="492.80" arrivalSpeed="10.12" duration="93.00" routeLength="995.90" waitingTime="3.00" waitingCount="2" stopTime="0.00" timeLoss="18.60" rerouteNo="0" devices="tripinfo_SN_104" vType="car" speedFactor="0.96" vaporized=""/>
    <tripinfo id="NS_110" depart="111.00" departLane="2i_0" departPos="4.10" departSpeed="0.00" departDelay="1.00" arrival="199.00" arrivalLane="4o_0" arrivalPos="492.80" arrivalSpeed="10.60" duration="88.00" routeLength="990.53" waitingTime="1.00" waitingCount="1" stopTime="0.00" timeLoss="19.84" rerouteNo="0" devices="tripinfo_NS_110" vType="car" speedFactor="1.04" vaporized=""/>
    <tripinfo id="SN_116" depart="116.00" departLane="3i_0" departPos="4.10" departSpeed="0.00" departDelay="0.00" arrival="202.00" arrivalLane="1o_0" arrivalPos="492.80" arrivalSpeed="10.80" duration="86.00" routeLength="995.70" waitingTime="1.00" waitingCount="1" stopTime="0.00" timeLoss="15.06" rerouteNo="0" devices="tripinfo_SN_116" vType="car" speedFactor="1.00" vaporized=""/>
    <tripinfo id="NS_114" depart="114.00" departLane="2i_0" departPos="4.10" departSpeed="0.00" departDelay="0.00" arrival="204.00" arrivalLane="1o_0" arrivalPos="492.80" arrivalSpeed="12.06" duration="90.00" routeLength="995.90" waitingTime="2.00" waitingCount="2" stopTime="0.00" timeLoss="24.66" rerouteNo="0" devices="tripinfo_NS_114" vType="car" speedFactor="1.09" vaporized=""/>
    <tripinfo id="EW_125" depart="125.00" departLane="4i_0" departPos="4.10" departSpeed="0.00" departDelay="0.00" arrival="208.00" arrivalLane="3o_0" arrivalPos="492.80" arrivalSpeed="10.45" duration="83.00" routeLength="995.90" waitingTime="0.00" waitingCount="0" stopTime="0.00" timeLoss="13.18" rerouteNo="0" devices="tripinfo_EW_125" vType="car" speedFactor="1.02" vaporized=""/>
    <tripinfo id="NS_129" depart="129.00" departLane="2i_0" departPos="4.10" departSpeed="0.00" departDelay="0.00" arrival="213.00" arrivalLane="4o_0" arrivalPos="492.80" arrivalSpeed="10.34" duration="84.00" routeLength="990.53" waitingTime="0.00" waitingCount="0" stopTime="0.00" timeLoss="13.95" rerouteNo="0" devices="tripinfo_NS_129" vType="car" speedFactor="1.00" vaporized=""/>
    <tripinfo id="EW_138" depart="138.00" departLane="4i_0" departPos="4.10" departSpeed="0.00" departDelay="0.00" arrival="213.00" arrivalLane="2o_0" arrivalPos="492.80" arrivalSpeed="11.74" duration="75.00" routeLength="995.70" waitingTime="0.00" waitingCount="0" stopTime="0.00" timeLoss="13.03" rerouteNo="0" devices="tripinfo_EW_138" vType="car" speedFactor="1.14" vaporized=""/>
    <tripinfo id="WE_109" depart="109.00" departLane="1i_0" departPos="4.10" departSpeed="0.00" departDelay="0.00" arrival="215.00" arrivalLane="4o_0" arrivalPos="492.80" arrivalSpeed="11.42" duration="106.00" routeLength="995.70" waitingTime="11.00" waitingCount="2" stopTime="0.00" timeLoss="37.57" rerouteNo="0" devices="tripinfo_WE_109" vType="car" speedFactor="1.04" vaporized=""/>
    <tripinfo id="SN_120" depart="120.00" departLane="3i_0" departPos="4.10" departSpeed="0.00" departDelay="0.00" arrival="219.00" arrivalLane="1o_0" arrivalPos="492.80" arrivalSpeed="8.98" duration="99.00" routeLength="995.70" waitingTime="3.00" waitingCount="1" stopTime="0.00" timeLoss="18.19" rerouteNo="0" devices="tripinfo_SN_120" vType="car" speedFactor="0.88" vaporized=""/>
    <tripinfo id="NS_122" depart="122.00" departLane="2i_0" departPos="4.10" departSpeed="0.00" departDelay="0.00" arrival="220.00" arrivalLane="3o_0" arrivalPos="492.80" arrivalSpeed="9.06" duration="98.00" routeLength="995.70" waitingTime="2.00" waitingCount="1" stopTime="0.00" timeLoss="15.30" rerouteNo="0" devices="tripinfo_NS_122" vType="car" speedFactor="0.85" vaporized=""/>
    <tripinfo id="SN_130" depart="130.00" departLane="3i_0" departPos="10.10" departSpeed="0.00" departDelay="0.00" arrival="222.00" arrivalLane="1o_0" arrivalPos="492.80" arrivalSpeed="11.05" duration="92.00" routeLength="989.70" waitingTime="0.00" waitingCount="0" stopTime="0.00" timeLoss="21.53" rerouteNo="0" devices="tripinfo_SN_130" vType="truck" speedFactor="1.00" vaporized=""/>
    <tripinfo id="EW_139" depart="143.00" departLane="4i_0" departPos="4.10" departSpeed="0.00" departDelay="4.00" arrival="228.00" arrivalLane="3o_0" arrivalPos="492.80" arrivalSpeed="11.13" duration="85.00" routeLength="995.90" waitingTime="1.00" waitingCount="1" stopTime="0.00" timeLoss="15.31" rerouteNo="0" devices="tripinfo_EW_139" vType="car" speedFactor="1.02" vaporized=""/>
    <tripinfo id="NS_133" depart="133.00" departLane="2i_0" departPos="4.10" departSpeed="0.00" departDelay="0.00" arrival="231.00" arrivalLane="1o_0" arrivalPos="492.80" arrivalSpeed="9.45" duration="98.00" routeLength="995.90" waitingTime="4.00" waitingCount="4" stopTime="0.00" timeLoss="19.48" rerouteNo="0" devices="tripinfo_NS_133" vType="car" speedFactor="0.90" vaporized=""/>
    <tripinfo id="NS_141" depart="141.00" departLane="2i_0" departPos="10.10" departSpeed="0.00" departDelay="0.00" arrival="231.00" arrivalLane="3o_0" arrivalPos="492.80" arrivalSpeed="10.51" duration="90.00" routeLength="989.70" waitingTime="0.00" waitingCount="0" stopTime="0.00" timeLoss="18.69" rerouteNo="0" devices="tripinfo_NS_141" vType="truck" speedFactor="0.98" vaporized=""/>
    <tripinfo id="WE_117" depart="117.00" departLane="1i_0" departPos="4.10" departSpeed="0.00" departDelay="0.00" arrival="232.00" arrivalLane="2o_0" arrivalPos="492.80" arrivalSpeed="9.42" duration="115.00" routeLength="995.90" waitingTime="10.00" waitingCount="2" stopTime="0.00" timeLoss="35.86" rerouteNo="0" devices="tripinfo_WE_117" vType="car" speedFactor="0.90" vaporized=""/>
    <tripinfo id="SN_147" depart="147.00" departLane="3i_0" departPos="4.10" departSpeed="0.00" departDelay="0.00" arrival="233.00" arrivalLane="2o_0" arrivalPos="492.80" arrivalSpeed="12.00" duration="86.00" routeLength="990.53" waitingTime="0.00" waitingCount="0" stopTime="0.00" timeLoss="23.08" rerouteNo="0" devices="tripinfo_SN_147" vType="car" speedFactor="1.12" vaporized=""/>
    <tripinfo id="EW_144" depart="145.00" departLane="4i_0" departPos="4.10" departSpeed="0.00" departDelay="1.00" arrival="234.00" arrivalLane="3o_0" arrivalPos="492.80" arrivalSpeed="11.61" duration="89.00" routeLength="995.90" waitingTime="1.00" waitingCount="1" stopTime="0.00" timeLoss="23.06" rerouteNo="0" devices="tripinfo_EW_144" vType="car" speedFactor="1.08" vaporized=""/>
    <tripinfo id="SN_151" depart="151.00" departLane="3i_0" departPos="4.10" departSpeed="0.00" departDelay="0.00" arrival="237.00" arrivalLane="4o_0" arrivalPos="492.80" arrivalSpeed="10.00" duration="86.00" routeLength="995.90" waitingTime="2.00" waitingCount="1" stopTime="0.00" timeLoss="13.61" rerouteNo="0" devices="tripinfo_SN_151" vType="car" speedFactor="0.99" vaporized=""/>
    <tripinfo id="EW_150" depart="150.00" departLane="4i_0" departPos="4.10" departSpeed="0.00" departDelay="0.00" arrival="239.00" arrivalLane="1o_0" arrivalPos="492.80" arrivalSpeed="10.55" duration="89.00" routeLength="990.53" waitingTime="0.00" waitingCount="0" stopTime="0.00" timeLoss="19.01" rerouteNo="0" devices="tripinfo_EW_150" vType="car" speedFactor="1.02" vaporized=""/>
    <tripinfo id="SN_154" depart="154.00" departLane="3i_0" departPos="4.10" departSpeed="0.00" departDelay="0.00" arrival="245.00" arrivalLane="4o_0" arrivalPos="492.80" arrivalSpeed="8.96" duration="91.00" routeLength="995.90" waitingTime="0.00" waitingCount="0" stopTime="0.00" timeLoss="10.68" rerouteNo="0" devices="tripinfo_SN_154" vType="car" speedFactor="0.88" vaporized=""/>
    <tripinfo id="NS_160" depart="161.00" departLane="2i_0" departPos="10.10" departSpeed="0.00" departDelay="1.00" arrival="248.00" arrivalLane="4o_0" arrivalPos="492.80" arrivalSpeed="10.83" duration="87.00" routeLength="984.53" waitingTime="0.00" waitingCount="0" stopTime="0.00" timeLoss="17.10" rerouteNo="0" devices="tripinfo_NS_160" vType="truck" speedFactor="1.01" vaporized=""/>
    <tripinfo id="WE_122" depart="122.00" departLane="1i_0" departPos="4.10" departSpeed="0.00" departDelay="0.00" arrival="249.00" arrivalLane="3o_0" arrivalPos="492.80" arrivalSpeed="8.99" duration="127.00" routeLength="990.53" waitingTime="17.00" waitingCount="4" stopTime="0.00" timeLoss="43.93" rerouteNo="0" devices="tripinfo_WE_122" vType="car" speedFactor="0.85" vaporized=""/>
    <tripinfo id="EW_153" depart="154.00" departLane="4i_0" departPos="10.10" departSpeed="0.00" departDelay="1.00" arrival="249.00" arrivalLane="2o_0" arrivalPos="492.80" arrivalSpeed="10.75" duration="95.00" routeLength="989.70" waitingTime="0.00" waitingCount="0" stopTime="0.00" timeLoss="22.04" rerouteNo="0" devices="tripinfo_EW_153" vType="truck" speedFactor="0.97" vaporized=""/>
    <tripinfo id="NS_157" depart="157.00" departLane="2i_0" departPos="4.10" departSpeed="0.00" departDelay="0.00" arrival="251.00" arrivalLane="3o_0" arrivalPos="492.80" arrivalSpeed="10.99" duration="94.00" routeLength="995.70" waitingTime="1.00" waitingCount="1" stopTime="0.00" timeLoss="25.43" rerouteNo="0" devices="tripinfo_NS_157" vType="car" speedFactor="1.04" vaporized=""/>
    <tripinfo id="EW_160" depart="160.00" departLane="4i_0" departPos="4.10" departSpeed="0.00" departDelay="0.00" arrival="251.00" arrivalLane="2o_0" arrivalPos="492.80" arrivalSpeed="10.94" duration="91.00" routeLength="995.70" waitingTime="0.00" waitingCount="0" stopTime="0.00" timeLoss="21.73" rerouteNo="0" devices="tripinfo_EW_160" vType="car" speedFactor="1.02" vaporized=""/>
    <tripinfo id="SN_155" depart="157.00" departLane="3i_0" departPos="4.10" departSpeed="0.00" departDelay="2.00" arrival="254.00" arrivalLane="1o_0" arrivalPos="492.80" arrivalSpeed="9.60" duration="97.00" routeLength="995.70" waitingTime="5.00" waitingCount="1" stopTime="0.00" timeLoss="18.82" rerouteNo="0" devices="tripinfo_SN_155" vType="car" speedFactor="0.91" vaporized=""/>
    <tripinfo id="EW_161" depart="163.00" departLane="4i_0" departPos="4.10" departSpeed="0.00" departDelay="2.00" arrival="254.00" arrivalLane="2o_0" arrivalPos="492.80" arrivalSpeed="10.10" duration="91.00" routeLength="995.70" waitingTime="0.00" waitingCount="0" stopTime="0.00" timeLoss="18.31" rerouteNo="0" devices="tripinfo_EW_161" vType="car" speedFactor="0.97" vaporized=""/>
    <tripinfo id="WE_123" depart="125.00" departLane="1i_0" departPos="4.10" departSpeed="0.00" departDelay="2.00" arrival="256.00" arrivalLane="2o_0" arrivalPos="492.80" arrivalSpeed="12.80" duration="131.00" routeLength="995.90" waitingTime="27.00" waitingCount="6" stopTime="0.00" timeLoss="70.06" rerouteNo="0" devices="tripinfo_WE_123" vType="car" speedFactor="1.17" vaporized=""/>
    <tripinfo id="NS_166" depart="166.00" departLane="2i_0" departPos="4.10" departSpeed="0.00" departDelay="0.00" arrival="257.00" arrivalLane="3o_0" arrivalPos="492.80" arrivalSpeed="11.20" duration="91.00" routeLength="995.70" waitingTime="3.00" waitingCount="1" stopTime="0.00" timeLoss="23.81" rerouteNo="0" devices="tripinfo_NS_166" vType="car" speedFactor="1.06" vaporized=""/>
    <tripinfo id="EW_177" depart="179.00" departLane="4i_0" departPos="4.10" departSpeed="0.00" departDelay="2.00" arrival="261.00" arrivalLane="1o_0" arrivalPos="492.80" arrivalSpeed="10.86" duration="82.00" routeLength="990.53" waitingTime="0.00" waitingCount="0" stopTime="0.00" timeLoss="13.98" rerouteNo="0" devices="tripinfo_EW_177" vType="car" speedFactor="1.03" vaporized=""/>
    <tripinfo id="WE_129" depart="129.00" departLane="1i_0" departPos="4.10" departSpeed="0.00" departDelay="0.00" arrival="262.00" arrivalLane="4o_0" arrivalPos="492.80" arrivalSpeed="11.49" duration="133.00" routeLength="995.70" waitingTime="26.00" waitingCount="8" stopTime="0.00" timeLoss="68.26" rerouteNo="0" devices="tripinfo_WE_129" vType="car" speedFactor="1.10" vaporized=""/>
    <tripinfo id="EW_175" depart="175.00" departLane="4i_0" departPos="4.10" departSpeed="0.00" departDelay="0.00" arrival="263.00" arrivalLane="3o_0" arrivalPos="492.80" arrivalSpeed="10.49" duration="88.00" routeLength="995.90" waitingTime="0.00" waitingCount="0" stopTime="0.00" timeLoss="15.56" rerouteNo="0" devices="tripinfo_EW_175" vType="car" speedFactor="0.98" vaporized=""/>
    <tripinfo id="EW_182" depart="182.00" departLane="4i_0" departPos="4.10" departSpeed="0.00" departDelay="0.00" arrival="265.00" arrivalLane="3o_0" arrivalPos="492.80" arrivalSpeed="11.86" duration="83.00" routeLength="995.90" waitingTime="0.00" waitingCount="0" stopTime="0.00" timeLoss="17.44" rerouteNo="0" devices="tripinfo_EW_182" vType="car" speedFactor="1.09" vaporized=""/>
    <tripinfo id="EW_187" depart="187.00" departLane="4i_0" departPos="4.10" departSpeed="0.00" departDelay="0.00" arrival="268.00" arrivalLane="2o_0" arrivalPos="492.80" arrivalSpeed="11.37" duration="81.00" routeLength="995.70" waitingTime="0.00" waitingCount="0" stopTime="0.00" timeLoss="12.69" rerouteNo="0" devices="tripinfo_EW_187" vType="car" speedFactor="1.03" vaporized=""/>