<?xml version="1.0" encoding="UTF-8"?>

<!-- generated on 2024-05-04 17:45:56 by Eclipse SUMO sumo Version 1.19.0
<configuration xmlns:xsi="http://www.w3.org/2001/XMLSchema-instance" xsi:noNamespaceSchemaLocation="http://sumo.dlr.de/xsd/sumoConfiguration.xsd">

    <input>
        <net-file value="test5.net.xml"/>
        <route-files value="route_gen.rou.xml"/>
    </input>

    <output>
        <tripinfo-output value="tripinfo_epi233.xml"/>
    </output>

    <report>
        <no-warnings value="true"/>
    </report>

    <traci_server>
        <remote-port value="46367"/>
    </traci_server>

</configuration>
-->

<tripinfos xmlns:xsi="http://www.w3.org/2001/XMLSchema-instance" xsi:noNamespaceSchemaLocation="http://sumo.dlr.de/xsd/tripinfo_file.xsd">
    <tripinfo id="NS_5" depart="5.00" departLane="2i_0" departPos="4.10" departSpeed="0.00" departDelay="0.00" arrival="81.00" arrivalLane="4o_0" arrivalPos="492.80" arrivalSpeed="11.28" duration="76.00" routeLength="990.53" waitingTime="0.00" waitingCount="0" stopTime="0.00" timeLoss="9.64" rerouteNo="0" devices="tripinfo_NS_5" vType="car" speedFactor="1.06" vaporized=""/>
    <tripinfo id="EW_13" depart="13.00" departLane="4i_0" departPos="4.10" departSpeed="0.00" departDelay="0.00" arrival="92.00" arrivalLane="1o_0" arrivalPos="492.80" arrivalSpeed="11.09" duration="79.00" routeLength="990.53" waitingTime="0.00" waitingCount="0" stopTime="0.00" timeLoss="8.87" rerouteNo="0" devices="tripinfo_EW_13" vType="car" speedFactor="1.01" vaporized=""/>
    <tripinfo id="WE_10" depart="10.00" departLane="1i_0" departPos="4.10" departSpeed="0.00" departDelay="0.00" arrival="94.00" arrivalLane="2o_0" arrivalPos="492.80" arrivalSpeed="10.13" duration="84.00" routeLength="995.90" waitingTime="0.00" waitingCount="0" stopTime="0.00" timeLoss="8.05" rerouteNo="0" devices="tripinfo_WE_10" vType="car" speedFactor="0.94" vaporized=""/>
    <tripinfo id="SN_16" depart="16.00" departLane="3i_0" departPos="4.10" departSpeed="0.00" departDelay="0.00" arrival="96.00" arrivalLane="2o_0" arrivalPos="492.80" arrivalSpeed="11.37" duration="80.00" routeLength="990.53" waitingTime="0.00" waitingCount="0" stopTime="0.00" timeLoss="10.97" rerouteNo="0" devices="tripinfo_SN_16" vType="car" speedFactor="1.03" vaporized=""/>
    <tripinfo id="WE_16" depart="16.00" departLane="1i_0" departPos="4.10" departSpeed="0.00" departDelay="0.00" arrival="105.00" arrivalLane="3o_0" arrivalPos="492.80" arrivalSpeed="11.14" duration="89.00" routeLength="990.53" waitingTime="12.00" waitingCount="1" stopTime="0.00" timeLoss="23.71" rerouteNo="0" devices="tripinfo_WE_16" vType="car" speedFactor="1.08" vaporized=""/>
    <tripinfo id="SN_20" depart="20.00" departLane="3i_0" departPos="4.10" departSpeed="0.00" departDelay="0.00" arrival="116.00" arrivalLane="1o_0" arrivalPos="492.80" arrivalSpeed="8.71" duration="96.00" routeLength="995.70" waitingTime="0.00" waitingCount="0" stopTime="0.00" timeLoss="10.55" rerouteNo="0" devices="tripinfo_SN_20" vType="car" speedFactor="0.83" vaporized=""/>
    <tripinfo id="SN_30" depart="30.00" departLane="3i_0" departPos="4.10" departSpeed="0.00" departDelay="0.00" arrival="118.00" arrivalLane="1o_0" arrivalPos="492.80" arrivalSpeed="11.58" duration="88.00" routeLength="995.70" waitingTime="3.00" waitingCount="1" stopTime="0.00" timeLoss="22.51" rerouteNo="0" devices="tripinfo_SN_30" vType="car" speedFactor="1.09" vaporized=""/>
    <tripinfo id="EW_30" depart="30.00" departLane="4i_0" departPos="4.10" departSpeed="0.00" departDelay="0.00" arrival="120.00" arrivalLane="2o_0" arrivalPos="492.80" arrivalSpeed="10.30" duration="90.00" routeLength="995.70" waitingTime="1.00" waitingCount="1" stopTime="0.00" timeLoss="14.09" rerouteNo="0" devices="tripinfo_EW_30" vType="car" speedFactor="0.94" vaporized=""/>
    <tripinfo id="WE_23" depart="23.00" departLane="1i_0" departPos="4.10" departSpeed="0.00" departDelay="0.00" arrival="122.00" arrivalLane="2o_0" arrivalPos="492.80" arrivalSpeed="11.00" duration="99.00" routeLength="995.90" waitingTime="11.00" waitingCount="3" stopTime="0.00" timeLoss="30.70" rerouteNo="0" devices="tripinfo_WE_23" vType="car" speedFactor="1.05" vaporized=""/>
    <tripinfo id="NS_28" depart="28.00" departLane="2i_0" departPos="4.10" departSpeed="0.00" departDelay="0.00" arrival="123.00" arrivalLane="4o_0" arrivalPos="492.80" arrivalSpeed="8.56" duration="95.00" routeLength="990.53" waitingTime="1.00" waitingCount="1" stopTime="0.00" timeLoss="15.29" rerouteNo="0" devices="tripinfo_NS_28" vType="car" speedFactor="0.89" vaporized=""/>
    <tripinfo id="SN_36" depart="36.00" departLane="3i_0" departPos="4.10" departSpeed="0.00" departDelay="0.00" arrival="124.00" arrivalLane="4o_0" arrivalPos="492.80" arrivalSpeed="12.23" duration="88.00" routeLength="995.90" waitingTime="0.00" waitingCount="0" stopTime="0.00" timeLoss="25.15" rerouteNo="0" devices="tripinfo_SN_36" vType="car" speedFactor="1.12" vaporized=""/>
    <tripinfo id="EW_40" depart="40.00" departLane="4i_0" departPos="4.10" departSpeed="0.00" departDelay="0.00" arrival="127.00" arrivalLane="2o_0" arrivalPos="492.80" arrivalSpeed="10.30" duration="87.00" routeLength="995.70" waitingTime="1.00" waitingCount="1" stopTime="0.00" timeLoss="15.14" rerouteNo="0" devices="tripinfo_EW_40" vType="car" speedFactor="0.99" vaporized=""/>
    <tripinfo id="WE_33" depart="33.00" departLane="1i_0" departPos="4.10" departSpeed="0.00" departDelay="0.00" arrival="128.00" arrivalLane="3o_0" arrivalPos="492.80" arrivalSpeed="10.24" duration="95.00" routeLength="990.53" waitingTime="8.00" waitingCount="3" stopTime="0.00" timeLoss="25.89" rerouteNo="0" devices="tripinfo_WE_33" vType="car" speedFactor="1.03" vaporized=""/>
    <tripinfo id="NS_35" depart="35.00" departLane="2i_0" departPos="10.10" departSpeed="0.00" departDelay="0.00" arrival="130.00" arrivalLane="4o_0" arrivalPos="492.80" arrivalSpeed="11.36" duration="95.00" routeLength="984.53" waitingTime="1.00" waitingCount="1" stopTime="0.00" timeLoss="26.24" rerouteNo="0" devices="tripinfo_NS_35" vType="truck" speedFactor="1.02" vaporized=""/>
    <tripinfo id="NS_30" depart="31.00" departLane="2i_0" departPos="4.10" departSpeed="0.00" departDelay="1.00" arrival="131.00" arrivalLane="1o_0" arrivalPos="492.80" arrivalSpeed="9.47" duration="100.00" routeLength="995.90" waitingTime="1.00" waitingCount="1" stopTime="0.00" timeLoss="17.51" rerouteNo="0" devices="tripinfo_NS_30" vType="car" speedFactor="0.86" vaporized=""/>
    <tripinfo id="EW_42" depart="44.00" departLane="4i_0" departPos="10.10" departSpeed="0.00" departDelay="2.00" arrival="135.00" arrivalLane="1o_0" arrivalPos="492.80" arrivalSpeed="10.56" duration="91.00" routeLength="984.53" waitingTime="1.00" waitingCount="1" stopTime="0.00" timeLoss="18.42" rerouteNo="0" devices="tripinfo_EW_42" vType="truck" speedFactor="0.97" vaporized=""/>
    <tripinfo id="NS_58" depart="58.00" departLane="2i_0" departPos="4.10" departSpeed="0.00" departDelay="0.00" arrival="137.00" arrivalLane="3o_0" arrivalPos="492.80" arrivalSpeed="12.27" duration="79.00" routeLength="995.70" waitingTime="1.00" waitingCount="1" stopTime="0.00" timeLoss="18.01" rerouteNo="0" devices="tripinfo_NS_58" vType="car" speedFactor="1.16" vaporized=""/>
    <tripinfo id="WE_42" depart="42.00" departLane="1i_0" departPos="4.10" departSpeed="0.00" departDelay="0.00" arrival="139.00" arrivalLane="2o_0" arrivalPos="492.80" arrivalSpeed="8.65" duration="97.00" routeLength="995.90" waitingTime="2.00" waitingCount="1" stopTime="0.00" timeLoss="16.00" rerouteNo="0" devices="tripinfo_WE_42" vType="car" speedFactor="0.88" vaporized=""/>
    <tripinfo id="NS_41" depart="41.00" departLane="2i_0" departPos="4.10" departSpeed="0.00" departDelay="0.00" arrival="142.00" arrivalLane="1o_0" arrivalPos="492.80" arrivalSpeed="9.25" duration="101.00" routeLength="995.90" waitingTime="3.00" waitingCount="3" stopTime="0.00" timeLoss="24.19" rerouteNo="0" devices="tripinfo_NS_41" vType="car" speedFactor="0.93" vaporized=""/>
    <tripinfo id="EW_48" depart="48.00" departLane="4i_0" departPos="4.10" departSpeed="0.00" departDelay="0.00" arrival="144.00" arrivalLane="1o_0" arrivalPos="492.80" arrivalSpeed="10.16" duration="96.00" routeLength="990.53" waitingTime="1.00" waitingCount="1" stopTime="0.00" timeLoss="20.16" rerouteNo="0" devices="tripinfo_EW_48" vType="car" speedFactor="0.94" vaporized=""/>
    <tripinfo id="WE_61" depart="61.00" departLane="1i_0" departPos="4.10" departSpeed="0.00" departDelay="0.00" arrival="144.00" arrivalLane="4o_0" arrivalPos="492.80" arrivalSpeed="11.23" duration="83.00" routeLength="995.70" waitingTime="0.00" waitingCount="0" stopTime="0.00" timeLoss="13.23" rerouteNo="0" devices="tripinfo_WE_61" vType="car" speedFactor="1.02" vaporized=""/>
    <tripinfo id="NS_70" depart="70.00" departLane="2i_0" departPos="4.10" departSpeed="0.00" departDelay="0.00" arrival="153.00" arrivalLane="3o_0" arrivalPos="492.80" arrivalSpeed="10.22" duration="83.00" routeLength="995.70" waitingTime="1.00" waitingCount="1" stopTime="0.00" timeLoss="12.60" rerouteNo="0" devices="tripinfo_NS_70" vType="car" speedFactor="1.01" vaporized=""/>
    <tripinfo id="SN_93" depart="93.00" departLane="3i_0" departPos="4.10" departSpeed="0.00" departDelay="0.00" arrival="164.00" arrivalLane="1o_0" arrivalPos="492.80" arrivalSpeed="12.51" duration="71.00" routeLength="995.70" waitingTime="0.00" waitingCount="0" stopTime="0.00" timeLoss="9.62" rerouteNo="0" devices="tripinfo_SN_93" vType="car" speedFactor="1.15" vaporized=""/>
    <tripinfo id="NS_73" depart="73.00" departLane="2i_0" departPos="4.10" departSpeed="0.00" departDelay="0.00" arrival="168.00" arrivalLane="4o_0" arrivalPos="492.80" arrivalSpeed="9.78" duration="95.00" routeLength="990.53" waitingTime="1.00" waitingCount="1" stopTime="0.00" timeLoss="15.93" rerouteNo="0" devices="tripinfo_NS_73" vType="car" speedFactor="0.89" vaporized=""/>
    <tripinfo id="WE_72" depart="72.00" departLane="1i_0" departPos="4.10" departSpeed="0.00" departDelay="0.00" arrival="170.00" arrivalLane="4o_0" arrivalPos="492.80" arrivalSpeed="10.27" duration="98.00" routeLength="995.70" waitingTime="10.00" waitingCount="2" stopTime="0.00" timeLoss="25.48" rerouteNo="0" devices="tripinfo_WE_72" vType="car" speedFactor="0.97" vaporized=""/>
    <tripinfo id="EW_75" depart="75.00" departLane="4i_0" departPos="4.10" departSpeed="0.00" departDelay="0.00" arrival="170.00" arrivalLane="3o_0" arrivalPos="492.80" arrivalSpeed="8.94" duration="95.00" routeLength="995.90" waitingTime="0.00" waitingCount="0" stopTime="0.00" timeLoss="9.44" rerouteNo="0" devices="tripinfo_EW_75" vType="car" speedFactor="0.83" vaporized=""/>
    <tripinfo id="EW_77" depart="78.00" departLane="4i_0" departPos="4.10" departSpeed="0.00" departDelay="1.00" arrival="172.00" arrivalLane="3o_0" arrivalPos="492.80" arrivalSpeed="8.41" duration="94.00" routeLength="995.90" waitingTime="0.00" waitingCount="0" stopTime="0.00" timeLoss="13.03" rerouteNo="0" devices="tripinfo_EW_77" vType="car" speedFactor="0.87" vaporized=""/>
    <tripinfo id="NS_78" depart="78.00" departLane="2i_0" departPos="4.10" departSpeed="0.00" departDelay="0.00" arrival="174.00" arrivalLane="4o_0" arrivalPos="492.80" arrivalSpeed="10.06" duration="96.00" routeLength="990.53" waitingTime="2.00" waitingCount="2" stopTime="0.00" timeLoss="18.60" rerouteNo="0" devices="tripinfo_NS_78" vType="car" speedFactor="0.92" vaporized=""/>
    <tripinfo id="EW_81" depart="81.00" departLane="4i_0" departPos="4.10" departSpeed="0.00" departDelay="0.00" arrival="174.00" arrivalLane="3o_0" arrivalPos="492.80" arrivalSpeed="11.27" duration="93.00" routeLength="995.90" waitingTime="0.00" waitingCount="0" stopTime="0.00" timeLoss="30.21" rerouteNo="0" devices="tripinfo_EW_81" vType="car" speedFactor="1.13" vaporized=""/>
    <tripinfo id="EW_87" depart="87.00" departLane="4i_0" departPos="4.10" departSpeed="0.00" departDelay="0.00" arrival="176.00" arrivalLane="3o_0" arrivalPos="492.80" arrivalSpeed="12.79" duration="89.00" routeLength="995.90" waitingTime="1.00" waitingCount="1" stopTime="0.00" timeLoss="28.21" rerouteNo="0" devices="tripinfo_EW_87" vType="car" speedFactor="1.18" vaporized=""/>
    <tripinfo id="NS_79" depart="81.00" departLane="2i_0" departPos="4.10" departSpeed="0.00" departDelay="2.00" arrival="177.00" arrivalLane="1o_0" arrivalPos="492.80" arrivalSpeed="10.44" duration="96.00" routeLength="995.90" waitingTime="0.00" waitingCount="0" stopTime="0.00" timeLoss="20.94" rerouteNo="0" devices="tripinfo_NS_79" vType="car" speedFactor="0.95" vaporized=""/>
    <tripinfo id="WE_102" depart="102.00" departLane="1i_0" departPos="4.10" departSpeed="0.00" departDelay="0.00" arrival="177.00" arrivalLane="2o_0" arrivalPos="492.80" arrivalSpeed="12.87" duration="75.00" routeLength="995.90" waitingTime="0.00" waitingCount="0" stopTime="0.00" timeLoss="14.67" rerouteNo="0" devices="tripinfo_WE_102" vType="car" speedFactor="1.17" vaporized=""/>
    <tripinfo id="EW_98" depart="98.00" departLane="4i_0" departPos="4.10" departSpeed="0.00" departDelay="0.00" arrival="178.00" arrivalLane="3o_0" arrivalPos="492.80" arrivalSpeed="10.95" duration="80.00" routeLength="995.90" waitingTime="0.00" waitingCount="0" stopTime="0.00" timeLoss="9.30" rerouteNo="0" devices="tripinfo_EW_98" vType="car" speedFactor="1.01" vaporized=""/>
    <tripinfo id="NS_86" depart="86.00" departLane="2i_0" departPos="4.10" departSpeed="0.00" departDelay="0.00" arrival="181.00" arrivalLane="4o_0" arrivalPos="492.80" arrivalSpeed="9.73" duration="95.00" routeLength="990.53" waitingTime="0.00" waitingCount="0" stopTime="0.00" timeLoss="19.45" rerouteNo="0" devices="tripinfo_NS_86" vType="car" speedFactor="0.93" vaporized=""/>
    <tripinfo id="EW_112" depart="112.00" departLane="4i_0" departPos="4.10" departSpeed="0.00" departDelay="0.00" arrival="188.00" arrivalLane="3o_0" arrivalPos="492.80" arrivalSpeed="12.99" duration="76.00" routeLength="995.90" waitingTime="1.00" waitingCount="1" stopTime="0.00" timeLoss="15.33" rerouteNo="0" devices="tripinfo_EW_112" vType="car" speedFactor="1.18" vaporized=""/>
    <tripinfo id="SN_104" depart="105.00" departLane="3i_0" departPos="4.10" departSpeed="0.00" departDelay="1.00" arrival="189.00" arrivalLane="1o_0" arrivalPos="492.80" arrivalSpeed="10.32" duration="84.00" routeLength="995.70" waitingTime="1.00" waitingCount="1" stopTime="0.00" timeLoss="14.00" rerouteNo="0" devices="tripinfo_SN_104" vType="car" speedFactor="1.02" vaporized=""/>
    <tripinfo id="WE_103" depart="105.00" departLane="1i_0" departPos="4.10" departSpeed="0.00" departDelay="2.00" arrival="192.00" arrivalLane="2o_0" arrivalPos="492.80" arrivalSpeed="10.74" duration="87.00" routeLength="995.90" waitingTime="0.00" waitingCount="0" stopTime="0.00" timeLoss="15.89" rerouteNo="0" devices="tripinfo_WE_103" vType="car" speedFactor="0.99" vaporized=""/>
    <tripinfo id="NS_112" depart="112.00" departLane="2i_0" departPos="4.10" departSpeed="0.00" departDelay="0.00" arrival="193.00" arrivalLane="1o_0" arrivalPos="492.80" arrivalSpeed="11.23" duration="81.00" routeLength="995.90" waitingTime="0.00" waitingCount="0" stopTime="0.00" timeLoss="16.79" rerouteNo="0" devices="tripinfo_NS_112" vType="car" speedFactor="1.10" vaporized=""/>
    <tripinfo id="EW_122" depart="124.00" departLane="4i_0" departPos="4.10" departSpeed="0.00" departDelay="2.00" arrival="201.00" arrivalLane="1o_0" arrivalPos="492.80" arrivalSpeed="10.31" duration="77.00" routeLength="990.53" waitingTime="0.00" waitingCount="0" stopTime="0.00" timeLoss="7.91" rerouteNo="0" devices="tripinfo_EW_122" vType="car" speedFactor="1.03" vaporized=""/>
    <tripinfo id="WE_108" depart="108.00" departLane="1i_0" departPos="4.10" departSpeed="0.00" departDelay="0.00" arrival="203.00" arrivalLane="3o_0" arrivalPos="492.80" arrivalSpeed="10.02" duration="95.00" routeLength="990.53" waitingTime="5.00" waitingCount="1" stopTime="0.00" timeLoss="22.87" rerouteNo="0" devices="tripinfo_WE_108" vType="car" speedFactor="0.97" vaporized=""/>
    <tripinfo id="EW_124" depart="126.00" departLane="4i_0" departPos="4.10" departSpeed="0.00" departDelay="2.00" arrival="203.00" arrivalLane="1o_0" arrivalPos="492.80" arrivalSpeed="10.96" duration="77.00" routeLength="990.53" waitingTime="0.00" waitingCount="0" stopTime="0.00" timeLoss="8.78" rerouteNo="0" devices="tripinfo_EW_124" vType="car" speedFactor="1.04" vaporized=""/>
    <tripinfo id="SN_123" depart="123.00" departLane="3i_0" departPos="4.10" departSpeed="0.00" departDelay="0.00" arrival="205.00" arrivalLane="1o_0" arrivalPos="492.80" arrivalSpeed="11.74" duration="82.00" routeLength="995.70" waitingTime="3.00" waitingCount="1" stopTime="0.00" timeLoss="16.61" rerouteNo="0" devices="tripinfo_SN_123" vType="car" speedFactor="1.09" vaporized=""/>
    <tripinfo id="NS_123" depart="123.00" departLane="2i_0" departPos="4.10" departSpeed="0.00" departDelay="0.00" arrival="212.00" arrivalLane="1o_0" arrivalPos="492.80" arrivalSpeed="9.49" duration="89.00" routeLength="995.90" waitingTime="2.00" waitingCount="2" stopTime="0.00" timeLoss="14.95" rerouteNo="0" devices="tripinfo_NS_123" vType="car" speedFactor="0.96" vaporized=""/>
    <tripinfo id="SN_140" depart="140.00" departLane="3i_0" departPos="4.10" departSpeed="0.00" departDelay="0.00" arrival="214.00" arrivalLane="4o_0" arrivalPos="492.80" arrivalSpeed="12.62" duration="74.00" routeLength="995.90" waitingTime="0.00" waitingCount="0" stopTime="0.00" timeLoss="12.70" rerouteNo="0" devices="tripinfo_SN_140" vType="car" speedFactor="1.17" vaporized=""/>
    <tripinfo id="WE_113" depart="113.00" departLane="1i_0" departPos="4.10" departSpeed="0.00" departDelay="0.00" arrival="216.00" arrivalLane="2o_0" arrivalPos="492.80" arrivalSpeed="9.43" duration="103.00" routeLength="995.90" waitingTime="5.00" waitingCount="2" stopTime="0.00" timeLoss="24.21" rerouteNo="0" devices="tripinfo_WE_113" vType="car" speedFactor="0.90" vaporized=""/>
    <tripinfo id="NS_124" depart="127.00" departLane="2i_0" departPos="4.10" departSpeed="0.00" departDelay="3.00" arrival="216.00" arrivalLane="3o_0" arrivalPos="492.80" arrivalSpeed="10.44" duration="89.00" routeLength="995.70" waitingTime="3.00" waitingCount="2" stopTime="0.00" timeLoss="21.35" rerouteNo="0" devices="tripinfo_NS_124" vType="car" speedFactor="1.04" vaporized=""/>
    <tripinfo id="SN_124" depart="125.00" departLane="3i_0" departPos="4.10" departSpeed="0.00" departDelay="1.00" arrival="218.00" arrivalLane="2o_0" arrivalPos="492.80" arrivalSpeed="11.59" duration="93.00" routeLength="990.53" waitingTime="2.00" waitingCount="1" stopTime="0.00" timeLoss="27.72" rerouteNo="0" devices="tripinfo_SN_124" vType="car" speedFactor="1.09" vaporized=""/>
    <tripinfo id="WE_125" depart="125.00" departLane="1i_0" departPos="4.10" departSpeed="0.00" departDelay="0.00" arrival="220.00" arrivalLane="2o_0" arrivalPos="492.80" arrivalSpeed="10.37" duration="95.00" routeLength="995.90" waitingTime="0.00" waitingCount="0" stopTime="0.00" timeLoss="23.56" rerouteNo="0" devices="tripinfo_WE_125" vType="car" speedFactor="1.00" vaporized=""/>
    <tripinfo id="SN_127" depart="128.00" departLane="3i_0" departPos="4.10" departSpeed="0.00" departDelay="1.00" arrival="223.00" arrivalLane="1o_0" arrivalPos="492.80" arrivalSpeed="9.20" duration="95.00" routeLength="995.70" waitingTime="0.00" waitingCount="0" stopTime="0.00" timeLoss="16.44" rerouteNo="0" devices="tripinfo_SN_127" vType="car" speedFactor="0.90" vaporized=""/>
    <tripinfo id="NS_133" depart="133.00" departLane="2i_0" departPos="4.10" departSpeed="0.00" departDelay="0.00" arrival="231.00" arrivalLane="1o_0" arrivalPos="492.80" arrivalSpeed="9.16" duration="98.00" routeLength="995.90" waitingTime="3.00" waitingCount="3" stopTime="0.00" timeLoss="17.52" rerouteNo="0" devices="tripinfo_NS_133" vType="car" speedFactor="0.88" vaporized=""/>
    <tripinfo id="EW_148" depart="148.00" departLane="4i_0" departPos="10.10" departSpeed="0.00" departDelay="0.00" arrival="232.00" arrivalLane="3o_0" arrivalPos="492.80" arrivalSpeed="11.02" duration="84.00" routeLength="989.90" waitingTime="0.00" waitingCount="0" stopTime="0.00" timeLoss="13.43" rerouteNo="0" devices="tripinfo_EW_148" vType="truck" speedFactor="1.00" vaporized=""/>
    <tripinfo id="SN_142" depart="143.00" departLane="3i_0" departPos="4.10" departSpeed="0.00" departDelay="1.00" arrival="233.00" arrivalLane="1o_0" arrivalPos="492.80" arrivalSpeed="12.12" duration="90.00" routeLength="995.70" waitingTime="2.00" waitingCount="1" stopTime="0.00" timeLoss="25.21" rerouteNo="0" devices="tripinfo_SN_142" vType="car" speedFactor="1.10" vaporized=""/>
    <tripinfo id="SN_148" depart="148.00" departLane="3i_0" departPos="4.10" departSpeed="0.00" departDelay="0.00" arrival="235.00" arrivalLane="2o_0" arrivalPos="492.80" arrivalSpeed="8.77" duration="87.00" routeLength="990.53" waitingTime="0.00" waitingCount="0" stopTime="0.00" timeLoss="8.67" rerouteNo="0" devices="tripinfo_SN_148" vType="car" speedFactor="0.90" vaporized=""/>
    <tripinfo id="NS_134" depart="135.00" departLane="2i_0" departPos="4.10" departSpeed="0.00" departDelay="1.00" arrival="238.00" arrivalLane="4o_0" arrivalPos="492.80" arrivalSpeed="9.01" duration="103.00" routeLength="990.53" waitingTime="3.00" waitingCount="3" stopTime="0.00" timeLoss="20.31" rerouteNo="0" devices="tripinfo_NS_134" vType="car" speedFactor="0.85" vaporized=""/>
    <tripinfo id="WE_145" depart="145.00" departLane="1i_0" departPos="4.10" departSpeed="0.00" departDelay="0.00" arrival="240.00" arrivalLane="4o_0" arrivalPos="492.80" arrivalSpeed="11.07" duration="95.00" routeLength="995.70" waitingTime="2.00" waitingCount="2" stopTime="0.00" timeLoss="24.17" rerouteNo="0" devices="tripinfo_WE_145" vType="car" speedFactor="1.00" vaporized=""/>
    <tripinfo id="NS_135" depart="139.00" departLane="2i_0" departPos="4.10" departSpeed="0.00" departDelay="4.00" arrival="245.00" arrivalLane="4o_0" arrivalPos="492.80" arrivalSpeed="8.79" duration="106.00" routeLength="990.53" waitingTime="1.00" waitingCount="1" stopTime="0.00" timeLoss="23.44" rerouteNo="0" devices="tripinfo_NS_135" vType="car" speedFactor="0.85" vaporized=""/>
    <tripinfo id="NS_141" depart="143.00" departLane="2i_0" departPos="10.10" departSpeed="0.00" departDelay="2.00" arrival="246.00" arrivalLane="1o_0" arrivalPos="492.80" arrivalSpeed="10.69" duration="103.00" routeLength="989.90" waitingTime="3.00" waitingCount="3" stopTime="0.00" timeLoss="33.09" rerouteNo="0" devices="tripinfo_NS_141" vType="truck" speedFactor="1.01" vaporized=""/>
    <tripinfo id="NS_151" depart="151.00" departLane="2i_0" departPos="4.10" departSpeed="0.00" departDelay="0.00" arrival="247.00" arrivalLane="3o_0" arrivalPos="492.80" arrivalSpeed="11.46" duration="96.00" routeLength="995.70" waitingTime="2.00" waitingCount="2" stopTime="0.00" timeLoss="34.28" rerouteNo="0" devices="tripinfo_NS_151" vType="car" speedFactor="1.14" vaporized=""/>
    <tripinfo id="WE_152" depart="152.00" departLane="1i_0" departPos="4.10" departSpeed="0.00" departDelay="0.00" arrival="247.00" arrivalLane="4o_0" arrivalPos="492.80" arrivalSpeed="10.23" duration="95.00" routeLength="995.70" waitingTime="2.00" waitingCount="2" stopTime="0.00" timeLoss="25.38" rerouteNo="0" devices="tripinfo_WE_152" vType="car" speedFactor="1.02" vaporized=""/>
    <tripinfo id="EW_171" depart="171.00" departLane="4i_0" departPos="4.10" departSpeed="0.00" departDelay="0.00" arrival="250.00" arrivalLane="1o_0" arrivalPos="492.80" arrivalSpeed="11.01" duration="79.00" routeLength="990.53" waitingTime="0.00" waitingCount="0" stopTime="0.00" timeLoss="8.79" rerouteNo="0" devices="tripinfo_EW_171" vType="car" speedFactor="1.02" vaporized=""/>
    <tripinfo id="NS_160" depart="160.00" departLane="2i_0" departPos="4.10" departSpeed="0.00" departDelay="0.00" arrival="257.00" arrivalLane="1o_0" arrivalPos="492.80" arrivalSpeed="10.10" duration="97.00" routeLength="995.90" waitingTime="0.00" waitingCount="0" stopTime="0.00" timeLoss="23.73" rerouteNo="0" devices="tripinfo_NS_160" vType="car" speedFactor="0.97" vaporized=""/>
    <tripinfo id="WE_169" depart="169.00" departLane="1i_0" departPos="10.10" departSpeed="0.00" departDelay="0.00" arrival="258.00" arrivalLane="4o_0" arrivalPos="492.80" arrivalSpeed="11.58" duration="89.00" routeLength="989.70" waitingTime="0.00" waitingCount="0" stopTime="0.00" timeLoss="21.57" rerouteNo="0" devices="tripinfo_WE_169" vType="truck" speedFactor="1.06" vaporized=""/>
    <tripinfo id="SN_177" depart="178.00" departLane="3i_0" departPos="4.10" departSpeed="0.00" departDelay="1.00" arrival="258.00" arrivalLane="2o_0" arrivalPos="492.80" arrivalSpeed="9.72" duration="80.00" routeLength="990.53" waitingTime="0.00" waitingCount="0" stopTime="0.00" timeLoss="8.65" rerouteNo="0" devices="tripinfo_SN_177" vType="car" speedFactor="0.99" vaporized=""/>
    <tripinfo id="NS_167" depart="167.00" departLane="2i_0" departPos="4.10" departSpeed="0.00" departDelay="0.00" arrival="260.00" arrivalLane="1o_0" arrivalPos="492.80" arrivalSpeed="11.74" duration="93.00" routeLength="995.90" waitingTime="2.00" waitingCount="2" stopTime="0.00" timeLoss="27.72" rerouteNo="0" devices="tripinfo_NS_167" vType="car" speedFactor="1.08" vaporized=""/>
    <tripinfo id="SN_178" depart="181.00" departLane="3i_0" departPos="4.10" departSpeed="0.00" departDelay="3.00" arrival="266.00" arrivalLane="2o_0" arrivalPos="492.80" arrivalSpeed="10.22" duration="85.00" routeLength="990.53" waitingTime="0.00" waitingCount="0" stopTime="0.00" timeLoss="9.90" rerouteNo="0" devices="tripinfo_SN_178" vType="car" speedFactor="0.94" vaporized=""/>
    <tripinfo id="SN_191" depart="191.00" departLane="3i_0" departPos="4.10" departSpeed="0.00" departDelay="0.00" arrival="268.00" arrivalLane="2o_0" arrivalPos="492.80" arrivalSpeed="10.78" duration="77.00" routeLength="990.53" waitingTime="0.00" waitingCount="0" stopTime="0.00" timeLoss="8.84" rerouteNo="0" devices="tripinfo_SN_191" vType="car" speedFactor="1.04" vaporized=""/>
    <tripinfo id="SN_185" depart="185.00" departLane="3i_0" departPos="4.10" departSpeed="0.00" departDelay="0.00" arrival="273.00" arrivalLane="1o_0" arrivalPos="492.80" arrivalSpeed="9.29" duration="88.00" routeLength="995.70" waitingTime="0.00" waitingCount="0" stopTime="0.00" timeLoss="10.16" rerouteNo="0" devices="tripinfo_SN_185" vType="car" speedFactor="0.91" vaporized=""/>
    <tripinfo id="EW_193" depart="193.00" departLane="4i_0" departPos="4.10" departSpeed="0.00" departDelay="0.00" arrival="273.00" arrivalLane="2o_0" arrivalPos="492.80" arrivalSpeed="10.25" duration="80.00" routeLength="995.70" waitingTime="0.00" waitingCount="0" stopTime="0.00" timeLoss="10.63" rerouteNo="0" devices="tripinfo_EW_193" vType="car" speedFactor="1.02" vaporized=""/>
    <tripinfo id="NS_179" depart="179.00" departLane="2i_0" departPos="4.10" departSpeed="0.00" departDelay="0.00" arrival="277.00" arrivalLane="4o_0" arrivalPos="492.80" arrivalSpeed="8.86" duration="98.00" routeLength="990.53" waitingTime="1.00" waitingCount="1" stopTime="0.00" timeLoss="17.66" rerouteNo="0" devices="tripinfo_NS_179" vType="car" speedFactor="0.88" vaporized=""/>
    <tripinfo id="NS_193" depart="195.00" departLane="2i_0" departPos="4.10" departSpeed="0.00" departDelay="2.00" arrival="283.00" arrivalLane="1o_0" arrivalPos="492.80" arrivalSpeed="11.11" duration="88.00" routeLength="995.90" waitingTime="1.00" waitingCount="1" stopTime="0.00" timeLoss="18.56" rerouteNo="0" devices="tripinfo_NS_193" vType="car" speedFactor="1.02" vaporized=""/>
    <tripinfo id="NS_191" depart="192.00" departLane="2i_0" departPos="4.10" departSpeed="0.00" departDelay="1.00" arrival="284.00" arrivalLane="3o_0" arrivalPos="492.80" arrivalSpeed="10.06" duration="92.00" routeLength="995.70" waitingTime="1.00" waitingCount="1" stopTime="0.00" timeLoss="13.97" rerouteNo="0" devices="tripinfo_NS_191" vType="car" speedFactor="0.91" vaporized=""/>
    <tripinfo id="EW_195" depart="197.00" departLane="4i_0" departPos="10.10" departSpeed="0.00" departDelay="2.00" arrival="288.00" arrivalLane="3o_0" arrivalPos="492.80" arrivalSpeed="10.48" duration="91.00" routeLength="989.90" waitingTime="0.00" waitingCount="0" stopTime="0.00" timeLoss="19.55" rerouteNo="0" devices="tripinfo_EW_195" vType="truck" speedFactor="0.99" vaporized=""/>
    <tripinfo id="WE_199" depart="205.00" departLane="1i_0" departPos="4.10" departSpeed="0.00" departDelay="6.00" arrival="290.00" arrivalLane="2o_0" arrivalPos="492.80" arrivalSpeed="11.61" duration="85.00" routeLength="995.90" waitingTime="3.00" waitingCount="1" stopTime="0.00" timeLoss="17.79" rerouteNo="0" devices="tripinfo_WE_199" vType="car" speedFactor="1.06" vaporized=""/>
    <tripinfo id="NS_198" depart="198.00" departLane="2i_0" departPos="4.10" departSpeed="0.00" departDelay="0.00" arrival="294.00" arrivalLane="4o_0" arrivalPos="492.80" arrivalSpeed="9.66" duration="96.00" routeLength="990.53" waitingTime="1.00" waitingCount="1" stopTime="0.00" timeLoss="20.71" rerouteNo="0" devices="tripinfo_NS_198" vType="car" speedFactor="0.94" vaporized=""/>
    <tripinfo id="SN_215" depart="216.00" departLane="3i_0" departPos="4.10" departSpeed="0.00" departDelay="1.00" arrival="297.00" arrivalLane="2o_0" arrivalPos="492.80" arrivalSpeed="9.77" duration="81.00" routeLength="990.53" waitingTime="0.00" waitingCount="0" stopTime="0.00" timeLoss="9.05" rerouteNo="0" devices="tripinfo_SN_215" vType="car" speedFactor="0.98" vaporized=""/>
    <tripinfo id="NS_205" depart="205.00" departLane="2i_0" departPos="4.10" departSpeed="0.00" departDelay="0.00" arrival="299.00" arrivalLane="4o_0" arrivalPos="492.80" arrivalSpeed="9.89" duration="94.00" routeLength="990.53" waitingTime="2.00" waitingCount="2" stopTime="0.00" timeLoss="20.23" rerouteNo="0" devices="tripinfo_NS_205" vType="car" speedFactor="0.96" vaporized=""/>