<?xml version="1.0" encoding="UTF-8"?>

<!-- generated on 2024-05-04 19:41:23 by Eclipse SUMO sumo Version 1.19.0
<configuration xmlns:xsi="http://www.w3.org/2001/XMLSchema-instance" xsi:noNamespaceSchemaLocation="http://sumo.dlr.de/xsd/sumoConfiguration.xsd">

    <input>
        <net-file value="test5.net.xml"/>
        <route-files value="route_gen.rou.xml"/>
    </input>

    <output>
        <tripinfo-output value="tripinfo_epi630.xml"/>
    </output>

    <report>
        <no-warnings value="true"/>
    </report>

    <traci_server>
        <remote-port value="45743"/>
    </traci_server>

</configuration>
-->

<tripinfos xmlns:xsi="http://www.w3.org/2001/XMLSchema-instance" xsi:noNamespaceSchemaLocation="http://sumo.dlr.de/xsd/tripinfo_file.xsd">
    <tripinfo id="SN_0" depart="0.00" departLane="3i_0" departPos="4.10" departSpeed="0.00" departDelay="0.00" arrival="80.00" arrivalLane="4o_0" arrivalPos="492.80" arrivalSpeed="11.49" duration="80.00" routeLength="995.90" waitingTime="2.00" waitingCount="1" stopTime="0.00" timeLoss="12.51" rerouteNo="0" devices="tripinfo_SN_0" vType="car" speedFactor="1.06" vaporized=""/>
    <tripinfo id="EW_9" depart="9.00" departLane="4i_0" departPos="4.10" departSpeed="0.00" departDelay="0.00" arrival="93.00" arrivalLane="3o_0" arrivalPos="492.80" arrivalSpeed="10.26" duration="84.00" routeLength="995.90" waitingTime="0.00" waitingCount="0" stopTime="0.00" timeLoss="8.06" rerouteNo="0" devices="tripinfo_EW_9" vType="car" speedFactor="0.94" vaporized=""/>
    <tripinfo id="NS_17" depart="17.00" departLane="2i_0" departPos="4.10" departSpeed="0.00" departDelay="0.00" arrival="96.00" arrivalLane="4o_0" arrivalPos="492.80" arrivalSpeed="10.96" duration="79.00" routeLength="990.53" waitingTime="0.00" waitingCount="0" stopTime="0.00" timeLoss="8.78" rerouteNo="0" devices="tripinfo_NS_17" vType="car" speedFactor="1.01" vaporized=""/>
    <tripinfo id="NS_23" depart="23.00" departLane="2i_0" departPos="4.10" departSpeed="0.00" departDelay="0.00" arrival="101.00" arrivalLane="3o_0" arrivalPos="492.80" arrivalSpeed="11.80" duration="78.00" routeLength="995.70" waitingTime="0.00" waitingCount="0" stopTime="0.00" timeLoss="11.85" rerouteNo="0" devices="tripinfo_NS_23" vType="car" speedFactor="1.08" vaporized=""/>
    <tripinfo id="NS_30" depart="30.00" departLane="2i_0" departPos="4.10" departSpeed="0.00" departDelay="0.00" arrival="109.00" arrivalLane="4o_0" arrivalPos="492.80" arrivalSpeed="10.47" duration="79.00" routeLength="990.53" waitingTime="0.00" waitingCount="0" stopTime="0.00" timeLoss="10.26" rerouteNo="0" devices="tripinfo_NS_30" vType="car" speedFactor="1.03" vaporized=""/>
    <tripinfo id="WE_32" depart="32.00" departLane="1i_0" departPos="4.10" departSpeed="0.00" departDelay="0.00" arrival="111.00" arrivalLane="4o_0" arrivalPos="492.80" arrivalSpeed="10.90" duration="79.00" routeLength="995.70" waitingTime="0.00" waitingCount="0" stopTime="0.00" timeLoss="10.75" rerouteNo="0" devices="tripinfo_WE_32" vType="car" speedFactor="1.05" vaporized=""/>
    <tripinfo id="SN_31" depart="31.00" departLane="3i_0" departPos="4.10" departSpeed="0.00" departDelay="0.00" arrival="125.00" arrivalLane="2o_0" arrivalPos="492.80" arrivalSpeed="9.06" duration="94.00" routeLength="990.53" waitingTime="0.00" waitingCount="0" stopTime="0.00" timeLoss="9.30" rerouteNo="0" devices="tripinfo_SN_31" vType="car" speedFactor="0.83" vaporized=""/>
    <tripinfo id="WE_36" depart="36.00" departLane="1i_0" departPos="4.10" departSpeed="0.00" departDelay="0.00" arrival="125.00" arrivalLane="4o_0" arrivalPos="492.80" arrivalSpeed="9.46" duration="89.00" routeLength="995.70" waitingTime="1.00" waitingCount="1" stopTime="0.00" timeLoss="13.25" rerouteNo="0" devices="tripinfo_WE_36" vType="car" speedFactor="0.94" vaporized=""/>
    <tripinfo id="NS_35" depart="35.00" departLane="2i_0" departPos="4.10" departSpeed="0.00" departDelay="0.00" arrival="127.00" arrivalLane="3o_0" arrivalPos="492.80" arrivalSpeed="9.28" duration="92.00" routeLength="995.70" waitingTime="0.00" waitingCount="0" stopTime="0.00" timeLoss="11.74" rerouteNo="0" devices="tripinfo_NS_35" vType="car" speedFactor="0.89" vaporized=""/>
    <tripinfo id="NS_40" depart="40.00" departLane="2i_0" departPos="4.10" departSpeed="0.00" departDelay="0.00" arrival="127.00" arrivalLane="4o_0" arrivalPos="492.80" arrivalSpeed="11.44" duration="87.00" routeLength="990.53" waitingTime="0.00" waitingCount="0" stopTime="0.00" timeLoss="21.75" rerouteNo="0" devices="tripinfo_NS_40" vType="car" speedFactor="1.09" vaporized=""/>
    <tripinfo id="SN_36" depart="36.00" departLane="3i_0" departPos="10.10" departSpeed="0.00" departDelay="0.00" arrival="128.00" arrivalLane="2o_0" arrivalPos="492.80" arrivalSpeed="10.08" duration="92.00" routeLength="984.53" waitingTime="0.00" waitingCount="0" stopTime="0.00" timeLoss="15.93" rerouteNo="0" devices="tripinfo_SN_36" vType="truck" speedFactor="0.93" vaporized=""/>
    <tripinfo id="NS_48" depart="48.00" departLane="2i_0" departPos="4.10" departSpeed="0.00" departDelay="0.00" arrival="129.00" arrivalLane="3o_0" arrivalPos="492.80" arrivalSpeed="10.73" duration="81.00" routeLength="995.70" waitingTime="0.00" waitingCount="0" stopTime="0.00" timeLoss="13.03" rerouteNo="0" devices="tripinfo_NS_48" vType="car" speedFactor="1.05" vaporized=""/>
    <tripinfo id="EW_47" depart="47.00" departLane="4i_0" departPos="4.10" departSpeed="0.00" departDelay="0.00" arrival="130.00" arrivalLane="2o_0" arrivalPos="492.80" arrivalSpeed="10.65" duration="83.00" routeLength="995.70" waitingTime="0.00" waitingCount="0" stopTime="0.00" timeLoss="13.78" rerouteNo="0" devices="tripinfo_EW_47" vType="car" speedFactor="1.03" vaporized=""/>
    <tripinfo id="WE_58" depart="58.00" departLane="1i_0" departPos="4.10" departSpeed="0.00" departDelay="0.00" arrival="140.00" arrivalLane="2o_0" arrivalPos="492.80" arrivalSpeed="10.52" duration="82.00" routeLength="995.90" waitingTime="1.00" waitingCount="1" stopTime="0.00" timeLoss="10.53" rerouteNo="0" devices="tripinfo_WE_58" vType="car" speedFactor="0.99" vaporized=""/>
    <tripinfo id="SN_54" depart="54.00" departLane="3i_0" departPos="10.10" departSpeed="0.00" departDelay="0.00" arrival="143.00" arrivalLane="2o_0" arrivalPos="492.80" arrivalSpeed="11.51" duration="89.00" routeLength="984.53" waitingTime="1.00" waitingCount="1" stopTime="0.00" timeLoss="21.83" rerouteNo="0" devices="tripinfo_SN_54" vType="truck" speedFactor="1.06" vaporized=""/>
    <tripinfo id="NS_66" depart="68.00" departLane="2i_0" departPos="4.10" departSpeed="0.00" departDelay="2.00" arrival="151.00" arrivalLane="1o_0" arrivalPos="492.80" arrivalSpeed="12.27" duration="83.00" routeLength="995.90" waitingTime="0.00" waitingCount="0" stopTime="0.00" timeLoss="21.43" rerouteNo="0" devices="tripinfo_NS_66" vType="car" speedFactor="1.16" vaporized=""/>
    <tripinfo id="WE_61" depart="61.00" departLane="1i_0" departPos="4.10" departSpeed="0.00" departDelay="0.00" arrival="153.00" arrivalLane="2o_0" arrivalPos="492.80" arrivalSpeed="9.99" duration="92.00" routeLength="995.90" waitingTime="3.00" waitingCount="1" stopTime="0.00" timeLoss="15.64" rerouteNo="0" devices="tripinfo_WE_61" vType="car" speedFactor="0.93" vaporized=""/>
    <tripinfo id="EW_63" depart="63.00" departLane="4i_0" departPos="4.10" departSpeed="0.00" departDelay="0.00" arrival="153.00" arrivalLane="3o_0" arrivalPos="492.80" arrivalSpeed="9.62" duration="90.00" routeLength="995.90" waitingTime="0.00" waitingCount="0" stopTime="0.00" timeLoss="9.10" rerouteNo="0" devices="tripinfo_EW_63" vType="car" speedFactor="0.88" vaporized=""/>
    <tripinfo id="NS_65" depart="65.00" departLane="2i_0" departPos="4.10" departSpeed="0.00" departDelay="0.00" arrival="155.00" arrivalLane="3o_0" arrivalPos="492.80" arrivalSpeed="9.85" duration="90.00" routeLength="995.70" waitingTime="2.00" waitingCount="1" stopTime="0.00" timeLoss="15.04" rerouteNo="0" devices="tripinfo_NS_65" vType="car" speedFactor="0.94" vaporized=""/>
    <tripinfo id="SN_67" depart="67.00" departLane="3i_0" departPos="4.10" departSpeed="0.00" departDelay="0.00" arrival="155.00" arrivalLane="2o_0" arrivalPos="492.80" arrivalSpeed="10.26" duration="88.00" routeLength="990.53" waitingTime="2.00" waitingCount="1" stopTime="0.00" timeLoss="18.71" rerouteNo="0" devices="tripinfo_SN_67" vType="car" speedFactor="1.02" vaporized=""/>
    <tripinfo id="WE_66" depart="66.00" departLane="1i_0" departPos="4.10" departSpeed="0.00" departDelay="0.00" arrival="156.00" arrivalLane="4o_0" arrivalPos="492.80" arrivalSpeed="10.28" duration="90.00" routeLength="995.70" waitingTime="0.00" waitingCount="0" stopTime="0.00" timeLoss="14.65" rerouteNo="0" devices="tripinfo_WE_66" vType="car" speedFactor="0.94" vaporized=""/>
    <tripinfo id="WE_73" depart="73.00" departLane="1i_0" departPos="4.10" departSpeed="0.00" departDelay="0.00" arrival="162.00" arrivalLane="4o_0" arrivalPos="492.80" arrivalSpeed="10.47" duration="89.00" routeLength="995.70" waitingTime="1.00" waitingCount="1" stopTime="0.00" timeLoss="16.24" rerouteNo="0" devices="tripinfo_WE_73" vType="car" speedFactor="0.97" vaporized=""/>
    <tripinfo id="SN_74" depart="74.00" departLane="3i_0" departPos="4.10" departSpeed="0.00" departDelay="0.00" arrival="163.00" arrivalLane="2o_0" arrivalPos="492.80" arrivalSpeed="8.96" duration="89.00" routeLength="990.53" waitingTime="0.00" waitingCount="0" stopTime="0.00" timeLoss="9.35" rerouteNo="0" devices="tripinfo_SN_74" vType="car" speedFactor="0.89" vaporized=""/>
    <tripinfo id="NS_68" depart="71.00" departLane="2i_0" departPos="4.10" departSpeed="0.00" departDelay="3.00" arrival="164.00" arrivalLane="4o_0" arrivalPos="492.80" arrivalSpeed="11.13" duration="93.00" routeLength="990.53" waitingTime="2.00" waitingCount="1" stopTime="0.00" timeLoss="22.92" rerouteNo="0" devices="tripinfo_NS_68" vType="car" speedFactor="1.01" vaporized=""/>
    <tripinfo id="EW_80" depart="80.00" departLane="4i_0" departPos="4.10" departSpeed="0.00" departDelay="0.00" arrival="172.00" arrivalLane="1o_0" arrivalPos="492.80" arrivalSpeed="9.39" duration="92.00" routeLength="990.53" waitingTime="4.00" waitingCount="1" stopTime="0.00" timeLoss="15.26" rerouteNo="0" devices="tripinfo_EW_80" vType="car" speedFactor="0.92" vaporized=""/>
    <tripinfo id="WE_76" depart="76.00" departLane="1i_0" departPos="4.10" departSpeed="0.00" departDelay="0.00" arrival="173.00" arrivalLane="2o_0" arrivalPos="492.80" arrivalSpeed="8.63" duration="97.00" routeLength="995.90" waitingTime="0.00" waitingCount="0" stopTime="0.00" timeLoss="10.94" rerouteNo="0" devices="tripinfo_WE_76" vType="car" speedFactor="0.83" vaporized=""/>
    <tripinfo id="NS_77" depart="77.00" departLane="2i_0" departPos="4.10" departSpeed="0.00" departDelay="0.00" arrival="173.00" arrivalLane="4o_0" arrivalPos="492.80" arrivalSpeed="8.41" duration="96.00" routeLength="990.53" waitingTime="0.00" waitingCount="0" stopTime="0.00" timeLoss="14.84" rerouteNo="0" devices="tripinfo_NS_77" vType="car" speedFactor="0.87" vaporized=""/>
    <tripinfo id="SN_88" depart="88.00" departLane="3i_0" departPos="4.10" departSpeed="0.00" departDelay="0.00" arrival="174.00" arrivalLane="1o_0" arrivalPos="492.80" arrivalSpeed="12.43" duration="86.00" routeLength="995.70" waitingTime="4.00" waitingCount="1" stopTime="0.00" timeLoss="23.01" rerouteNo="0" devices="tripinfo_SN_88" vType="car" speedFactor="1.13" vaporized=""/>
    <tripinfo id="WE_81" depart="81.00" departLane="1i_0" departPos="4.10" departSpeed="0.00" departDelay="0.00" arrival="175.00" arrivalLane="4o_0" arrivalPos="492.80" arrivalSpeed="10.01" duration="94.00" routeLength="995.70" waitingTime="1.00" waitingCount="1" stopTime="0.00" timeLoss="18.73" rerouteNo="0" devices="tripinfo_WE_81" vType="car" speedFactor="0.95" vaporized=""/>
    <tripinfo id="WE_90" depart="90.00" departLane="1i_0" departPos="4.10" departSpeed="0.00" departDelay="0.00" arrival="175.00" arrivalLane="3o_0" arrivalPos="492.80" arrivalSpeed="9.83" duration="85.00" routeLength="990.53" waitingTime="0.00" waitingCount="0" stopTime="0.00" timeLoss="8.98" rerouteNo="0" devices="tripinfo_WE_90" vType="car" speedFactor="0.93" vaporized=""/>
    <tripinfo id="EW_94" depart="94.00" departLane="4i_0" departPos="4.10" departSpeed="0.00" departDelay="0.00" arrival="175.00" arrivalLane="2o_0" arrivalPos="492.80" arrivalSpeed="12.19" duration="81.00" routeLength="995.70" waitingTime="0.00" waitingCount="0" stopTime="0.00" timeLoss="20.28" rerouteNo="0" devices="tripinfo_EW_94" vType="car" speedFactor="1.18" vaporized=""/>
    <tripinfo id="NS_94" depart="94.00" departLane="2i_0" departPos="4.10" departSpeed="0.00" departDelay="0.00" arrival="176.00" arrivalLane="1o_0" arrivalPos="492.80" arrivalSpeed="12.71" duration="82.00" routeLength="995.90" waitingTime="3.00" waitingCount="1" stopTime="0.00" timeLoss="20.08" rerouteNo="0" devices="tripinfo_NS_94" vType="car" speedFactor="1.15" vaporized=""/>
    <tripinfo id="SN_106" depart="106.00" departLane="3i_0" departPos="4.10" departSpeed="0.00" departDelay="0.00" arrival="183.00" arrivalLane="4o_0" arrivalPos="492.80" arrivalSpeed="12.06" duration="77.00" routeLength="995.90" waitingTime="1.00" waitingCount="1" stopTime="0.00" timeLoss="16.64" rerouteNo="0" devices="tripinfo_SN_106" vType="car" speedFactor="1.17" vaporized=""/>
    <tripinfo id="SN_102" depart="102.00" departLane="3i_0" departPos="4.10" departSpeed="0.00" departDelay="0.00" arrival="184.00" arrivalLane="2o_0" arrivalPos="492.80" arrivalSpeed="10.44" duration="82.00" routeLength="990.53" waitingTime="0.00" waitingCount="0" stopTime="0.00" timeLoss="12.08" rerouteNo="0" devices="tripinfo_SN_102" vType="car" speedFactor="1.01" vaporized=""/>
    <tripinfo id="WE_116" depart="116.00" departLane="1i_0" departPos="4.10" departSpeed="0.00" departDelay="0.00" arrival="184.00" arrivalLane="3o_0" arrivalPos="492.80" arrivalSpeed="12.95" duration="68.00" routeLength="990.53" waitingTime="0.00" waitingCount="0" stopTime="0.00" timeLoss="7.59" rerouteNo="0" devices="tripinfo_WE_116" vType="car" speedFactor="1.18" vaporized=""/>
    <tripinfo id="EW_108" depart="111.00" departLane="4i_0" departPos="4.10" departSpeed="0.00" departDelay="3.00" arrival="193.00" arrivalLane="3o_0" arrivalPos="492.80" arrivalSpeed="10.01" duration="82.00" routeLength="995.90" waitingTime="0.00" waitingCount="0" stopTime="0.00" timeLoss="10.75" rerouteNo="0" devices="tripinfo_EW_108" vType="car" speedFactor="0.99" vaporized=""/>
    <tripinfo id="SN_111" depart="111.00" departLane="3i_0" departPos="4.10" departSpeed="0.00" departDelay="0.00" arrival="194.00" arrivalLane="4o_0" arrivalPos="492.80" arrivalSpeed="9.53" duration="83.00" routeLength="995.90" waitingTime="0.00" waitingCount="0" stopTime="0.00" timeLoss="10.36" rerouteNo="0" devices="tripinfo_SN_111" vType="car" speedFactor="0.97" vaporized=""/>
    <tripinfo id="NS_118" depart="118.00" departLane="2i_0" departPos="4.10" departSpeed="0.00" departDelay="0.00" arrival="196.00" arrivalLane="4o_0" arrivalPos="492.80" arrivalSpeed="11.66" duration="78.00" routeLength="990.53" waitingTime="1.00" waitingCount="1" stopTime="0.00" timeLoss="13.78" rerouteNo="0" devices="tripinfo_NS_118" vType="car" speedFactor="1.10" vaporized=""/>
    <tripinfo id="EW_109" depart="115.00" departLane="4i_0" departPos="10.10" departSpeed="0.00" departDelay="6.00" arrival="209.00" arrivalLane="2o_0" arrivalPos="492.80" arrivalSpeed="10.95" duration="94.00" routeLength="989.70" waitingTime="2.00" waitingCount="1" stopTime="0.00" timeLoss="23.87" rerouteNo="0" devices="tripinfo_EW_109" vType="truck" speedFactor="1.01" vaporized=""/>
    <tripinfo id="EW_132" depart="132.00" departLane="4i_0" departPos="4.10" departSpeed="0.00" departDelay="0.00" arrival="217.00" arrivalLane="1o_0" arrivalPos="492.80" arrivalSpeed="11.48" duration="85.00" routeLength="990.53" waitingTime="1.00" waitingCount="1" stopTime="0.00" timeLoss="16.73" rerouteNo="0" devices="tripinfo_EW_132" vType="car" speedFactor="1.04" vaporized=""/>
    <tripinfo id="WE_125" depart="125.00" departLane="1i_0" departPos="4.10" departSpeed="0.00" departDelay="0.00" arrival="218.00" arrivalLane="2o_0" arrivalPos="492.80" arrivalSpeed="9.12" duration="93.00" routeLength="995.90" waitingTime="1.00" waitingCount="1" stopTime="0.00" timeLoss="14.59" rerouteNo="0" devices="tripinfo_WE_125" vType="car" speedFactor="0.90" vaporized=""/>
    <tripinfo id="EW_125" depart="127.00" departLane="4i_0" departPos="4.10" departSpeed="0.00" departDelay="2.00" arrival="220.00" arrivalLane="2o_0" arrivalPos="492.80" arrivalSpeed="10.74" duration="93.00" routeLength="995.70" waitingTime="0.00" waitingCount="0" stopTime="0.00" timeLoss="24.09" rerouteNo="0" devices="tripinfo_EW_125" vType="car" speedFactor="1.03" vaporized=""/>
    <tripinfo id="SN_138" depart="138.00" departLane="3i_0" departPos="4.10" departSpeed="0.00" departDelay="0.00" arrival="220.00" arrivalLane="1o_0" arrivalPos="492.80" arrivalSpeed="11.58" duration="82.00" routeLength="995.70" waitingTime="2.00" waitingCount="1" stopTime="0.00" timeLoss="16.59" rerouteNo="0" devices="tripinfo_SN_138" vType="car" speedFactor="1.09" vaporized=""/>
    <tripinfo id="WE_127" depart="128.00" departLane="1i_0" departPos="4.10" departSpeed="0.00" departDelay="1.00" arrival="222.00" arrivalLane="2o_0" arrivalPos="492.80" arrivalSpeed="10.39" duration="94.00" routeLength="995.90" waitingTime="1.00" waitingCount="1" stopTime="0.00" timeLoss="19.84" rerouteNo="0" devices="tripinfo_WE_127" vType="car" speedFactor="0.96" vaporized=""/>
    <tripinfo id="SN_129" depart="129.00" departLane="3i_0" departPos="4.10" departSpeed="0.00" departDelay="0.00" arrival="224.00" arrivalLane="2o_0" arrivalPos="492.80" arrivalSpeed="11.54" duration="95.00" routeLength="990.53" waitingTime="12.00" waitingCount="1" stopTime="0.00" timeLoss="29.84" rerouteNo="0" devices="tripinfo_SN_129" vType="car" speedFactor="1.09" vaporized=""/>
    <tripinfo id="NS_138" depart="138.00" departLane="2i_0" departPos="10.10" departSpeed="0.00" departDelay="0.00" arrival="229.00" arrivalLane="3o_0" arrivalPos="492.80" arrivalSpeed="11.06" duration="91.00" routeLength="989.70" waitingTime="1.00" waitingCount="1" stopTime="0.00" timeLoss="21.39" rerouteNo="0" devices="tripinfo_NS_138" vType="truck" speedFactor="1.02" vaporized=""/>
    <tripinfo id="SN_141" depart="141.00" departLane="3i_0" departPos="4.10" departSpeed="0.00" departDelay="0.00" arrival="231.00" arrivalLane="1o_0" arrivalPos="492.80" arrivalSpeed="9.11" duration="90.00" routeLength="995.70" waitingTime="0.00" waitingCount="0" stopTime="0.00" timeLoss="11.31" rerouteNo="0" devices="tripinfo_SN_141" vType="car" speedFactor="0.90" vaporized=""/>
    <tripinfo id="WE_151" depart="151.00" departLane="1i_0" departPos="4.10" departSpeed="0.00" departDelay="0.00" arrival="233.00" arrivalLane="3o_0" arrivalPos="492.80" arrivalSpeed="11.30" duration="82.00" routeLength="990.53" waitingTime="0.00" waitingCount="0" stopTime="0.00" timeLoss="12.14" rerouteNo="0" devices="tripinfo_WE_151" vType="car" speedFactor="1.02" vaporized=""/>
    <tripinfo id="SN_144" depart="144.00" departLane="3i_0" departPos="4.10" departSpeed="0.00" departDelay="0.00" arrival="242.00" arrivalLane="1o_0" arrivalPos="492.80" arrivalSpeed="9.36" duration="98.00" routeLength="995.70" waitingTime="3.00" waitingCount="1" stopTime="0.00" timeLoss="16.64" rerouteNo="0" devices="tripinfo_SN_144" vType="car" speedFactor="0.88" vaporized=""/>
    <tripinfo id="NS_140" depart="143.00" departLane="2i_0" departPos="4.10" departSpeed="0.00" departDelay="3.00" arrival="243.00" arrivalLane="3o_0" arrivalPos="492.80" arrivalSpeed="10.23" duration="100.00" routeLength="995.70" waitingTime="8.00" waitingCount="1" stopTime="0.00" timeLoss="28.55" rerouteNo="0" devices="tripinfo_NS_140" vType="car" speedFactor="1.00" vaporized=""/>
    <tripinfo id="NS_150" depart="150.00" departLane="2i_0" departPos="4.10" departSpeed="0.00" departDelay="0.00" arrival="244.00" arrivalLane="3o_0" arrivalPos="492.80" arrivalSpeed="12.95" duration="94.00" routeLength="995.70" waitingTime="10.00" waitingCount="2" stopTime="0.00" timeLoss="33.54" rerouteNo="0" devices="tripinfo_NS_150" vType="car" speedFactor="1.17" vaporized=""/>
    <tripinfo id="SN_149" depart="149.00" departLane="3i_0" departPos="4.10" departSpeed="0.00" departDelay="0.00" arrival="245.00" arrivalLane="2o_0" arrivalPos="492.80" arrivalSpeed="8.91" duration="96.00" routeLength="990.53" waitingTime="0.00" waitingCount="0" stopTime="0.00" timeLoss="13.27" rerouteNo="0" devices="tripinfo_SN_149" vType="car" speedFactor="0.85" vaporized=""/>
    <tripinfo id="SN_156" depart="156.00" departLane="3i_0" departPos="4.10" departSpeed="0.00" departDelay="0.00" arrival="246.00" arrivalLane="4o_0" arrivalPos="492.80" arrivalSpeed="10.39" duration="90.00" routeLength="995.90" waitingTime="2.00" waitingCount="1" stopTime="0.00" timeLoss="19.30" rerouteNo="0" devices="tripinfo_SN_156" vType="car" speedFactor="1.00" vaporized=""/>
    <tripinfo id="WE_159" depart="159.00" departLane="1i_0" departPos="4.10" departSpeed="0.00" departDelay="0.00" arrival="246.00" arrivalLane="2o_0" arrivalPos="492.80" arrivalSpeed="10.65" duration="87.00" routeLength="995.90" waitingTime="0.00" waitingCount="0" stopTime="0.00" timeLoss="16.06" rerouteNo="0" devices="tripinfo_WE_159" vType="car" speedFactor="1.00" vaporized=""/>
    <tripinfo id="SN_171" depart="171.00" departLane="3i_0" departPos="4.10" departSpeed="0.00" departDelay="0.00" arrival="248.00" arrivalLane="4o_0" arrivalPos="492.80" arrivalSpeed="11.55" duration="77.00" routeLength="995.90" waitingTime="0.00" waitingCount="0" stopTime="0.00" timeLoss="13.16" rerouteNo="0" devices="tripinfo_SN_171" vType="car" speedFactor="1.12" vaporized=""/>
    <tripinfo id="WE_163" depart="163.00" departLane="1i_0" departPos="10.10" departSpeed="0.00" departDelay="0.00" arrival="251.00" arrivalLane="2o_0" arrivalPos="492.80" arrivalSpeed="11.87" duration="88.00" routeLength="989.90" waitingTime="0.00" waitingCount="0" stopTime="0.00" timeLoss="21.05" rerouteNo="0" devices="tripinfo_WE_163" vType="truck" speedFactor="1.07" vaporized=""/>
    <tripinfo id="NS_166" depart="166.00" departLane="2i_0" departPos="10.10" departSpeed="0.00" departDelay="0.00" arrival="252.00" arrivalLane="4o_0" arrivalPos="492.80" arrivalSpeed="10.71" duration="86.00" routeLength="984.53" waitingTime="0.00" waitingCount="0" stopTime="0.00" timeLoss="14.14" rerouteNo="0" devices="tripinfo_NS_166" vType="truck" speedFactor="0.98" vaporized=""/>
    <tripinfo id="WE_165" depart="167.00" departLane="1i_0" departPos="4.10" departSpeed="0.00" departDelay="2.00" arrival="261.00" arrivalLane="4o_0" arrivalPos="492.80" arrivalSpeed="10.27" duration="94.00" routeLength="995.70" waitingTime="0.00" waitingCount="0" stopTime="0.00" timeLoss="24.78" rerouteNo="0" devices="tripinfo_WE_165" vType="car" speedFactor="1.02" vaporized=""/>
    <tripinfo id="SN_178" depart="178.00" departLane="3i_0" departPos="4.10" departSpeed="0.00" departDelay="0.00" arrival="262.00" arrivalLane="2o_0" arrivalPos="492.80" arrivalSpeed="10.04" duration="84.00" routeLength="990.53" waitingTime="0.00" waitingCount="0" stopTime="0.00" timeLoss="8.65" rerouteNo="0" devices="tripinfo_SN_178" vType="car" speedFactor="0.94" vaporized=""/>
    <tripinfo id="EW_159" depart="159.00" departLane="4i_0" departPos="4.10" departSpeed="0.00" departDelay="0.00" arrival="265.00" arrivalLane="1o_0" arrivalPos="492.80" arrivalSpeed="9.28" duration="106.00" routeLength="990.53" waitingTime="12.00" waitingCount="1" stopTime="0.00" timeLoss="27.70" rerouteNo="0" devices="tripinfo_EW_159" vType="car" speedFactor="0.90" vaporized=""/>
    <tripinfo id="WE_175" depart="176.00" departLane="1i_0" departPos="10.10" departSpeed="0.00" departDelay="1.00" arrival="265.00" arrivalLane="2o_0" arrivalPos="492.80" arrivalSpeed="11.13" duration="89.00" routeLength="989.90" waitingTime="0.00" waitingCount="0" stopTime="0.00" timeLoss="18.46" rerouteNo="0" devices="tripinfo_WE_175" vType="truck" speedFactor="1.01" vaporized=""/>
    <tripinfo id="EW_146" depart="146.00" departLane="4i_0" departPos="4.10" departSpeed="0.00" departDelay="0.00" arrival="266.00" arrivalLane="3o_0" arrivalPos="492.80" arrivalSpeed="8.80" duration="120.00" routeLength="995.90" waitingTime="19.00" waitingCount="2" stopTime="0.00" timeLoss="36.25" rerouteNo="0" devices="tripinfo_EW_146" vType="car" speedFactor="0.85" vaporized=""/>
    <tripinfo id="EW_155" depart="156.00" departLane="4i_0" departPos="4.10" departSpeed="0.00" departDelay="1.00" arrival="267.00" arrivalLane="3o_0" arrivalPos="492.80" arrivalSpeed="10.20" duration="111.00" routeLength="995.90" waitingTime="17.00" waitingCount="1" stopTime="0.00" timeLoss="46.50" rerouteNo="0" devices="tripinfo_EW_155" vType="car" speedFactor="1.10" vaporized=""/>
    <tripinfo id="EW_168" depart="168.00" departLane="4i_0" departPos="4.10" departSpeed="0.00" departDelay="0.00" arrival="267.00" arrivalLane="1o_0" arrivalPos="492.80" arrivalSpeed="12.01" duration="99.00" routeLength="990.53" waitingTime="8.00" waitingCount="1" stopTime="0.00" timeLoss="33.45" rerouteNo="0" devices="tripinfo_EW_168" vType="car" speedFactor="1.08" vaporized=""/>
    <tripinfo id="SN_194" depart="194.00" departLane="3i_0" departPos="4.10" departSpeed="0.00" departDelay="0.00" arrival="274.00" arrivalLane="2o_0" arrivalPos="492.80" arrivalSpeed="10.09" duration="80.00" routeLength="990.53" waitingTime="1.00" waitingCount="1" stopTime="0.00" timeLoss="10.89" rerouteNo="0" devices="tripinfo_SN_194" vType="car" speedFactor="1.02" vaporized=""/>
    <tripinfo id="WE_177" depart="180.00" departLane="1i_0" departPos="4.10" departSpeed="0.00" departDelay="3.00" arrival="275.00" arrivalLane="4o_0" arrivalPos="492.80" arrivalSpeed="10.24" duration="95.00" routeLength="995.70" waitingTime="3.00" waitingCount="1" stopTime="0.00" timeLoss="22.62" rerouteNo="0" devices="tripinfo_WE_177" vType="car" speedFactor="0.99" vaporized=""/>
    <tripinfo id="NS_181" depart="181.00" departLane="2i_0" departPos="4.10" departSpeed="0.00" departDelay="0.00" arrival="275.00" arrivalLane="1o_0" arrivalPos="492.80" arrivalSpeed="8.71" duration="94.00" routeLength="995.90" waitingTime="1.00" waitingCount="1" stopTime="0.00" timeLoss="13.37" rerouteNo="0" devices="tripinfo_NS_181" vType="car" speedFactor="0.88" vaporized=""/>
    <tripinfo id="WE_193" depart="193.00" departLane="1i_0" departPos="4.10" departSpeed="0.00" departDelay="0.00" arrival="275.00" arrivalLane="3o_0" arrivalPos="492.80" arrivalSpeed="10.91" duration="82.00" routeLength="990.53" waitingTime="1.00" waitingCount="1" stopTime="0.00" timeLoss="13.69" rerouteNo="0" devices="tripinfo_WE_193" vType="car" speedFactor="1.04" vaporized=""/>
    <tripinfo id="NS_185" depart="185.00" departLane="2i_0" departPos="4.10" departSpeed="0.00" departDelay="0.00" arrival="277.00" arrivalLane="1o_0" arrivalPos="492.80" arrivalSpeed="9.88" duration="92.00" routeLength="995.90" waitingTime="0.00" waitingCount="0" stopTime="0.00" timeLoss="13.37" rerouteNo="0" devices="tripinfo_NS_185" vType="car" speedFactor="0.91" vaporized=""/>
    <tripinfo id="WE_196" depart="196.00" departLane="1i_0" departPos="4.10" departSpeed="0.00" departDelay="0.00" arrival="277.00" arrivalLane="3o_0" arrivalPos="492.80" arrivalSpeed="10.32" duration="81.00" routeLength="990.53" waitingTime="0.00" waitingCount="0" stopTime="0.00" timeLoss="12.02" rerouteNo="0" devices="tripinfo_WE_196" vType="car" speedFactor="1.02" vaporized=""/>
    <tripinfo id="EW_189" depart="189.00" departLane="4i_0" departPos="4.10" departSpeed="0.00" departDelay="0.00" arrival="280.00" arrivalLane="1o_0" arrivalPos="492.80" arrivalSpeed="9.31" duration="91.00" routeLength="990.53" waitingTime="0.00" waitingCount="0" stopTime="0.00" timeLoss="14.03" rerouteNo="0" devices="tripinfo_EW_189" vType="car" speedFactor="0.91" vaporized=""/>
    <tripinfo id="EW_198" depart="198.00" departLane="4i_0" departPos="4.10" departSpeed="0.00" departDelay="0.00" arrival="282.00" arrivalLane="2o_0" arrivalPos="492.80" arrivalSpeed="9.84" duration="84.00" routeLength="995.70" waitingTime="0.00" waitingCount="0" stopTime="0.00" timeLoss="10.69" rerouteNo="0" devices="tripinfo_EW_198" vType="car" speedFactor="0.97" vaporized=""/>
    <tripinfo id="WE_205" depart="205.00" departLane="1i_0" departPos="4.10" departSpeed="0.00" departDelay="0.00" arrival="286.00" arrivalLane="3o_0" arrivalPos="492.80" arrivalSpeed="10.93" duration="81.00" routeLength="990.53" waitingTime="0.00" waitingCount="0" stopTime="0.00" timeLoss="14.32" rerouteNo="0" devices="tripinfo_WE_205" vType="car" speedFactor="1.06" vaporized=""/>
    <tripinfo id="NS_209" depart="209.00" departLane="2i_0" departPos="4.10" departSpeed="0.00" departDelay="0.00" arrival="286.00" arrivalLane="1o_0" arrivalPos="492.80" arrivalSpeed="10.82" duration="77.00" routeLength="995.90" waitingTime="0.00" waitingCount="0" stopTime="0.00" timeLoss="8.30" rerouteNo="0" devices="tripinfo_NS_209" vType="car" speedFactor="1.03" vaporized=""/>
    <tripinfo id="SN_208" depart="208.00" departLane="3i_0" departPos="4.10" departSpeed="0.00" departDelay="0.00" arrival="290.00" arrivalLane="4o_0" arrivalPos="492.80" arrivalSpeed="10.21" duration="82.00" routeLength="995.90" waitingTime="0.00" waitingCount="0" stopTime="0.00" timeLoss="10.29" rerouteNo="0" devices="tripinfo_SN_208" vType="car" speedFactor="0.98" vaporized=""/>
    <tripinfo id="WE_199" depart="199.00" departLane="1i_0" departPos="4.10" departSpeed="0.00" departDelay="0.00" arrival="291.00" arrivalLane="2o_0" arrivalPos="492.80" arrivalSpeed="10.19" duration="92.00" routeLength="995.90" waitingTime="2.00" waitingCount="1" stopTime="0.00" timeLoss="16.39" rerouteNo="0" devices="tripinfo_WE_199" vType="car" speedFactor="0.94" vaporized=""/>