<?xml version="1.0" encoding="UTF-8"?>

<!-- generated on 2024-05-04 20:50:46 by Eclipse SUMO sumo Version 1.19.0
<configuration xmlns:xsi="http://www.w3.org/2001/XMLSchema-instance" xsi:noNamespaceSchemaLocation="http://sumo.dlr.de/xsd/sumoConfiguration.xsd">

    <input>
        <net-file value="test5.net.xml"/>
        <route-files value="route_gen.rou.xml"/>
    </input>

    <output>
        <tripinfo-output value="tripinfo_epi889.xml"/>
    </output>

    <report>
        <no-warnings value="true"/>
    </report>

    <traci_server>
        <remote-port value="38377"/>
    </traci_server>

</configuration>
-->

<tripinfos xmlns:xsi="http://www.w3.org/2001/XMLSchema-instance" xsi:noNamespaceSchemaLocation="http://sumo.dlr.de/xsd/tripinfo_file.xsd">
    <tripinfo id="WE_1" depart="1.00" departLane="1i_0" departPos="4.10" departSpeed="0.00" departDelay="0.00" arrival="82.00" arrivalLane="2o_0" arrivalPos="492.80" arrivalSpeed="11.41" duration="81.00" routeLength="995.90" waitingTime="3.00" waitingCount="1" stopTime="0.00" timeLoss="13.27" rerouteNo="0" devices="tripinfo_WE_1" vType="car" speedFactor="1.06" vaporized=""/>
    <tripinfo id="NS_10" depart="10.00" departLane="2i_0" departPos="4.10" departSpeed="0.00" departDelay="0.00" arrival="85.00" arrivalLane="3o_0" arrivalPos="492.80" arrivalSpeed="11.73" duration="75.00" routeLength="995.70" waitingTime="0.00" waitingCount="0" stopTime="0.00" timeLoss="9.40" rerouteNo="0" devices="tripinfo_NS_10" vType="car" speedFactor="1.08" vaporized=""/>
    <tripinfo id="EW_8" depart="8.00" departLane="4i_0" departPos="4.10" departSpeed="0.00" departDelay="0.00" arrival="91.00" arrivalLane="1o_0" arrivalPos="492.80" arrivalSpeed="10.78" duration="83.00" routeLength="990.53" waitingTime="1.00" waitingCount="1" stopTime="0.00" timeLoss="12.77" rerouteNo="0" devices="tripinfo_EW_8" vType="car" speedFactor="1.01" vaporized=""/>
    <tripinfo id="SN_3" depart="3.00" departLane="3i_0" departPos="4.10" departSpeed="0.00" departDelay="0.00" arrival="92.00" arrivalLane="2o_0" arrivalPos="492.80" arrivalSpeed="9.30" duration="89.00" routeLength="990.53" waitingTime="2.00" waitingCount="1" stopTime="0.00" timeLoss="13.61" rerouteNo="0" devices="tripinfo_SN_3" vType="car" speedFactor="0.94" vaporized=""/>
    <tripinfo id="NS_12" depart="13.00" departLane="2i_0" departPos="4.10" departSpeed="0.00" departDelay="1.00" arrival="92.00" arrivalLane="4o_0" arrivalPos="492.80" arrivalSpeed="11.32" duration="79.00" routeLength="990.53" waitingTime="0.00" waitingCount="0" stopTime="0.00" timeLoss="10.30" rerouteNo="0" devices="tripinfo_NS_12" vType="car" speedFactor="1.03" vaporized=""/>
    <tripinfo id="WE_26" depart="26.00" departLane="1i_0" departPos="4.10" departSpeed="0.00" departDelay="0.00" arrival="99.00" arrivalLane="3o_0" arrivalPos="492.80" arrivalSpeed="11.33" duration="73.00" routeLength="990.53" waitingTime="0.00" waitingCount="0" stopTime="0.00" timeLoss="8.14" rerouteNo="0" devices="tripinfo_WE_26" vType="car" speedFactor="1.09" vaporized=""/>
    <tripinfo id="WE_17" depart="17.00" departLane="1i_0" departPos="4.10" departSpeed="0.00" departDelay="0.00" arrival="107.00" arrivalLane="2o_0" arrivalPos="492.80" arrivalSpeed="8.87" duration="90.00" routeLength="995.90" waitingTime="0.00" waitingCount="0" stopTime="0.00" timeLoss="9.95" rerouteNo="0" devices="tripinfo_WE_17" vType="car" speedFactor="0.89" vaporized=""/>
    <tripinfo id="NS_29" depart="29.00" departLane="2i_0" departPos="4.10" departSpeed="0.00" departDelay="0.00" arrival="108.00" arrivalLane="4o_0" arrivalPos="492.80" arrivalSpeed="11.20" duration="79.00" routeLength="990.53" waitingTime="0.00" waitingCount="0" stopTime="0.00" timeLoss="10.15" rerouteNo="0" devices="tripinfo_NS_29" vType="car" speedFactor="1.03" vaporized=""/>
    <tripinfo id="SN_12" depart="12.00" departLane="3i_0" departPos="4.10" departSpeed="0.00" departDelay="0.00" arrival="109.00" arrivalLane="1o_0" arrivalPos="492.80" arrivalSpeed="9.15" duration="97.00" routeLength="995.70" waitingTime="0.00" waitingCount="0" stopTime="0.00" timeLoss="11.64" rerouteNo="0" devices="tripinfo_SN_12" vType="car" speedFactor="0.83" vaporized=""/>
    <tripinfo id="EW_32" depart="32.00" departLane="4i_0" departPos="4.10" departSpeed="0.00" departDelay="0.00" arrival="109.00" arrivalLane="2o_0" arrivalPos="492.80" arrivalSpeed="12.43" duration="77.00" routeLength="995.70" waitingTime="0.00" waitingCount="0" stopTime="0.00" timeLoss="13.26" rerouteNo="0" devices="tripinfo_EW_32" vType="car" speedFactor="1.12" vaporized=""/>
    <tripinfo id="SN_16" depart="16.00" departLane="3i_0" departPos="4.10" departSpeed="0.00" departDelay="0.00" arrival="111.00" arrivalLane="1o_0" arrivalPos="492.80" arrivalSpeed="11.57" duration="95.00" routeLength="995.70" waitingTime="0.00" waitingCount="0" stopTime="0.00" timeLoss="26.74" rerouteNo="0" devices="tripinfo_SN_16" vType="car" speedFactor="1.05" vaporized=""/>
    <tripinfo id="WE_30" depart="30.00" departLane="1i_0" departPos="4.10" departSpeed="0.00" departDelay="0.00" arrival="112.00" arrivalLane="4o_0" arrivalPos="492.80" arrivalSpeed="11.00" duration="82.00" routeLength="995.70" waitingTime="0.00" waitingCount="0" stopTime="0.00" timeLoss="13.97" rerouteNo="0" devices="tripinfo_WE_30" vType="car" speedFactor="1.05" vaporized=""/>
    <tripinfo id="NS_22" depart="22.00" departLane="2i_0" departPos="4.10" departSpeed="0.00" departDelay="0.00" arrival="113.00" arrivalLane="1o_0" arrivalPos="492.80" arrivalSpeed="10.34" duration="91.00" routeLength="995.90" waitingTime="0.00" waitingCount="0" stopTime="0.00" timeLoss="14.84" rerouteNo="0" devices="tripinfo_NS_22" vType="car" speedFactor="0.94" vaporized=""/>
    <tripinfo id="NS_25" depart="25.00" departLane="2i_0" departPos="4.10" departSpeed="0.00" departDelay="0.00" arrival="116.00" arrivalLane="1o_0" arrivalPos="492.80" arrivalSpeed="9.03" duration="91.00" routeLength="995.90" waitingTime="0.00" waitingCount="0" stopTime="0.00" timeLoss="7.89" rerouteNo="0" devices="tripinfo_NS_25" vType="car" speedFactor="0.86" vaporized=""/>
    <tripinfo id="NS_32" depart="32.00" departLane="2i_0" departPos="4.10" departSpeed="0.00" departDelay="0.00" arrival="118.00" arrivalLane="1o_0" arrivalPos="492.80" arrivalSpeed="10.97" duration="86.00" routeLength="995.90" waitingTime="0.00" waitingCount="0" stopTime="0.00" timeLoss="13.89" rerouteNo="0" devices="tripinfo_NS_32" vType="car" speedFactor="0.99" vaporized=""/>
    <tripinfo id="EW_39" depart="39.00" departLane="4i_0" departPos="4.10" departSpeed="0.00" departDelay="0.00" arrival="124.00" arrivalLane="3o_0" arrivalPos="492.80" arrivalSpeed="9.98" duration="85.00" routeLength="995.90" waitingTime="0.00" waitingCount="0" stopTime="0.00" timeLoss="8.03" rerouteNo="0" devices="tripinfo_EW_39" vType="car" speedFactor="0.93" vaporized=""/>
    <tripinfo id="NS_47" depart="47.00" departLane="2i_0" departPos="4.10" departSpeed="0.00" departDelay="0.00" arrival="125.00" arrivalLane="3o_0" arrivalPos="492.80" arrivalSpeed="12.13" duration="78.00" routeLength="995.70" waitingTime="0.00" waitingCount="0" stopTime="0.00" timeLoss="16.99" rerouteNo="0" devices="tripinfo_NS_47" vType="car" speedFactor="1.16" vaporized=""/>
    <tripinfo id="SN_42" depart="42.00" departLane="3i_0" departPos="4.10" departSpeed="0.00" departDelay="0.00" arrival="128.00" arrivalLane="2o_0" arrivalPos="492.80" arrivalSpeed="9.90" duration="86.00" routeLength="990.53" waitingTime="0.00" waitingCount="0" stopTime="0.00" timeLoss="11.13" rerouteNo="0" devices="tripinfo_SN_42" vType="car" speedFactor="0.94" vaporized=""/>
    <tripinfo id="EW_42" depart="42.00" departLane="4i_0" departPos="4.10" departSpeed="0.00" departDelay="0.00" arrival="131.00" arrivalLane="1o_0" arrivalPos="492.80" arrivalSpeed="9.44" duration="89.00" routeLength="990.53" waitingTime="0.00" waitingCount="0" stopTime="0.00" timeLoss="8.54" rerouteNo="0" devices="tripinfo_EW_42" vType="car" speedFactor="0.88" vaporized=""/>
    <tripinfo id="WE_49" depart="49.00" departLane="1i_0" departPos="4.10" departSpeed="0.00" departDelay="0.00" arrival="131.00" arrivalLane="2o_0" arrivalPos="492.80" arrivalSpeed="11.02" duration="82.00" routeLength="995.90" waitingTime="1.00" waitingCount="1" stopTime="0.00" timeLoss="12.37" rerouteNo="0" devices="tripinfo_WE_49" vType="car" speedFactor="1.02" vaporized=""/>
    <tripinfo id="WE_51" depart="51.00" departLane="1i_0" departPos="4.10" departSpeed="0.00" departDelay="0.00" arrival="137.00" arrivalLane="2o_0" arrivalPos="492.80" arrivalSpeed="10.75" duration="86.00" routeLength="995.90" waitingTime="0.00" waitingCount="0" stopTime="0.00" timeLoss="15.70" rerouteNo="0" devices="tripinfo_WE_51" vType="car" speedFactor="1.01" vaporized=""/>
    <tripinfo id="EW_46" depart="46.00" departLane="4i_0" departPos="4.10" departSpeed="0.00" departDelay="0.00" arrival="138.00" arrivalLane="3o_0" arrivalPos="492.80" arrivalSpeed="9.98" duration="92.00" routeLength="995.90" waitingTime="1.00" waitingCount="1" stopTime="0.00" timeLoss="16.31" rerouteNo="0" devices="tripinfo_EW_46" vType="car" speedFactor="0.94" vaporized=""/>
    <tripinfo id="NS_54" depart="54.00" departLane="2i_0" departPos="4.10" departSpeed="0.00" departDelay="0.00" arrival="142.00" arrivalLane="3o_0" arrivalPos="492.80" arrivalSpeed="10.81" duration="88.00" routeLength="995.70" waitingTime="3.00" waitingCount="1" stopTime="0.00" timeLoss="14.73" rerouteNo="0" devices="tripinfo_NS_54" vType="car" speedFactor="0.97" vaporized=""/>
    <tripinfo id="EW_59" depart="59.00" departLane="4i_0" departPos="4.10" departSpeed="0.00" departDelay="0.00" arrival="151.00" arrivalLane="2o_0" arrivalPos="492.80" arrivalSpeed="9.53" duration="92.00" routeLength="995.70" waitingTime="0.00" waitingCount="0" stopTime="0.00" timeLoss="12.58" rerouteNo="0" devices="tripinfo_EW_59" vType="car" speedFactor="0.89" vaporized=""/>
    <tripinfo id="SN_69" depart="69.00" departLane="3i_0" departPos="4.10" departSpeed="0.00" departDelay="0.00" arrival="153.00" arrivalLane="2o_0" arrivalPos="492.80" arrivalSpeed="12.56" duration="84.00" routeLength="990.53" waitingTime="0.00" waitingCount="0" stopTime="0.00" timeLoss="21.34" rerouteNo="0" devices="tripinfo_SN_69" vType="car" speedFactor="1.13" vaporized=""/>
    <tripinfo id="SN_65" depart="65.00" departLane="3i_0" departPos="4.10" departSpeed="0.00" departDelay="0.00" arrival="159.00" arrivalLane="4o_0" arrivalPos="492.80" arrivalSpeed="8.93" duration="94.00" routeLength="995.90" waitingTime="0.00" waitingCount="0" stopTime="0.00" timeLoss="8.11" rerouteNo="0" devices="tripinfo_SN_65" vType="car" speedFactor="0.83" vaporized=""/>
    <tripinfo id="WE_69" depart="69.00" departLane="1i_0" departPos="4.10" departSpeed="0.00" departDelay="0.00" arrival="161.00" arrivalLane="4o_0" arrivalPos="492.80" arrivalSpeed="9.45" duration="92.00" routeLength="995.70" waitingTime="0.00" waitingCount="0" stopTime="0.00" timeLoss="14.48" rerouteNo="0" devices="tripinfo_WE_69" vType="car" speedFactor="0.92" vaporized=""/>
    <tripinfo id="EW_68" depart="68.00" departLane="4i_0" departPos="4.10" departSpeed="0.00" departDelay="0.00" arrival="163.00" arrivalLane="3o_0" arrivalPos="492.80" arrivalSpeed="9.13" duration="95.00" routeLength="995.90" waitingTime="1.00" waitingCount="1" stopTime="0.00" timeLoss="14.04" rerouteNo="0" devices="tripinfo_EW_68" vType="car" speedFactor="0.87" vaporized=""/>
    <tripinfo id="SN_77" depart="77.00" departLane="3i_0" departPos="10.10" departSpeed="0.00" departDelay="0.00" arrival="163.00" arrivalLane="4o_0" arrivalPos="492.80" arrivalSpeed="10.96" duration="86.00" routeLength="989.90" waitingTime="0.00" waitingCount="0" stopTime="0.00" timeLoss="19.89" rerouteNo="0" devices="tripinfo_SN_77" vType="truck" speedFactor="1.09" vaporized=""/>
    <tripinfo id="NS_74" depart="74.00" departLane="2i_0" departPos="4.10" departSpeed="0.00" departDelay="0.00" arrival="164.00" arrivalLane="1o_0" arrivalPos="492.80" arrivalSpeed="9.77" duration="90.00" routeLength="995.90" waitingTime="1.00" waitingCount="1" stopTime="0.00" timeLoss="13.77" rerouteNo="0" devices="tripinfo_NS_74" vType="car" speedFactor="0.93" vaporized=""/>
    <tripinfo id="EW_69" depart="71.00" departLane="4i_0" departPos="4.10" departSpeed="0.00" departDelay="2.00" arrival="165.00" arrivalLane="3o_0" arrivalPos="492.80" arrivalSpeed="10.19" duration="94.00" routeLength="995.90" waitingTime="0.00" waitingCount="0" stopTime="0.00" timeLoss="19.31" rerouteNo="0" devices="tripinfo_EW_69" vType="car" speedFactor="0.95" vaporized=""/>
    <tripinfo id="WE_80" depart="80.00" departLane="1i_0" departPos="4.10" departSpeed="0.00" departDelay="0.00" arrival="167.00" arrivalLane="3o_0" arrivalPos="492.80" arrivalSpeed="12.76" duration="87.00" routeLength="990.53" waitingTime="0.00" waitingCount="0" stopTime="0.00" timeLoss="25.45" rerouteNo="0" devices="tripinfo_WE_80" vType="car" speedFactor="1.15" vaporized=""/>
    <tripinfo id="SN_86" depart="86.00" departLane="3i_0" departPos="4.10" departSpeed="0.00" departDelay="0.00" arrival="167.00" arrivalLane="4o_0" arrivalPos="492.80" arrivalSpeed="10.72" duration="81.00" routeLength="995.90" waitingTime="0.00" waitingCount="0" stopTime="0.00" timeLoss="10.34" rerouteNo="0" devices="tripinfo_SN_86" vType="car" speedFactor="1.01" vaporized=""/>
    <tripinfo id="SN_88" depart="89.00" departLane="3i_0" departPos="4.10" departSpeed="0.00" departDelay="1.00" arrival="168.00" arrivalLane="1o_0" arrivalPos="492.80" arrivalSpeed="11.91" duration="79.00" routeLength="995.70" waitingTime="4.00" waitingCount="1" stopTime="0.00" timeLoss="18.30" rerouteNo="0" devices="tripinfo_SN_88" vType="car" speedFactor="1.17" vaporized=""/>
    <tripinfo id="NS_95" depart="95.00" departLane="2i_0" departPos="4.10" departSpeed="0.00" departDelay="0.00" arrival="173.00" arrivalLane="4o_0" arrivalPos="492.80" arrivalSpeed="10.60" duration="78.00" routeLength="990.53" waitingTime="0.00" waitingCount="0" stopTime="0.00" timeLoss="8.76" rerouteNo="0" devices="tripinfo_NS_95" vType="car" speedFactor="1.02" vaporized=""/>
    <tripinfo id="EW_99" depart="99.00" departLane="4i_0" departPos="4.10" departSpeed="0.00" departDelay="0.00" arrival="173.00" arrivalLane="2o_0" arrivalPos="492.80" arrivalSpeed="12.10" duration="74.00" routeLength="995.70" waitingTime="0.00" waitingCount="0" stopTime="0.00" timeLoss="13.79" rerouteNo="0" devices="tripinfo_EW_99" vType="car" speedFactor="1.18" vaporized=""/>
    <tripinfo id="EW_94" depart="94.00" departLane="4i_0" departPos="4.10" departSpeed="0.00" departDelay="0.00" arrival="178.00" arrivalLane="1o_0" arrivalPos="492.80" arrivalSpeed="11.00" duration="84.00" routeLength="990.53" waitingTime="2.00" waitingCount="1" stopTime="0.00" timeLoss="13.00" rerouteNo="0" devices="tripinfo_EW_94" vType="car" speedFactor="0.99" vaporized=""/>
    <tripinfo id="EW_103" depart="103.00" departLane="4i_0" departPos="4.10" departSpeed="0.00" departDelay="0.00" arrival="179.00" arrivalLane="2o_0" arrivalPos="492.80" arrivalSpeed="11.83" duration="76.00" routeLength="995.70" waitingTime="0.00" waitingCount="0" stopTime="0.00" timeLoss="11.20" rerouteNo="0" devices="tripinfo_EW_103" vType="car" speedFactor="1.10" vaporized=""/>
    <tripinfo id="WE_99" depart="99.00" departLane="1i_0" departPos="4.10" departSpeed="0.00" departDelay="0.00" arrival="180.00" arrivalLane="3o_0" arrivalPos="492.80" arrivalSpeed="10.48" duration="81.00" routeLength="990.53" waitingTime="0.00" waitingCount="0" stopTime="0.00" timeLoss="8.08" rerouteNo="0" devices="tripinfo_WE_99" vType="car" speedFactor="0.97" vaporized=""/>
    <tripinfo id="WE_111" depart="113.00" departLane="1i_0" departPos="4.10" departSpeed="0.00" departDelay="2.00" arrival="195.00" arrivalLane="2o_0" arrivalPos="492.80" arrivalSpeed="11.09" duration="82.00" routeLength="995.90" waitingTime="0.00" waitingCount="0" stopTime="0.00" timeLoss="13.56" rerouteNo="0" devices="tripinfo_WE_111" vType="car" speedFactor="1.04" vaporized=""/>
    <tripinfo id="EW_117" depart="117.00" departLane="4i_0" departPos="4.10" departSpeed="0.00" departDelay="0.00" arrival="196.00" arrivalLane="3o_0" arrivalPos="492.80" arrivalSpeed="12.06" duration="79.00" routeLength="995.90" waitingTime="0.00" waitingCount="0" stopTime="0.00" timeLoss="13.25" rerouteNo="0" devices="tripinfo_EW_117" vType="car" speedFactor="1.09" vaporized=""/>
    <tripinfo id="NS_103" depart="103.00" departLane="2i_0" departPos="4.10" departSpeed="0.00" departDelay="0.00" arrival="197.00" arrivalLane="4o_0" arrivalPos="492.80" arrivalSpeed="9.84" duration="94.00" routeLength="990.53" waitingTime="5.00" waitingCount="1" stopTime="0.00" timeLoss="15.86" rerouteNo="0" devices="tripinfo_NS_103" vType="car" speedFactor="0.90" vaporized=""/>
    <tripinfo id="WE_108" depart="109.00" departLane="1i_0" departPos="4.10" departSpeed="0.00" departDelay="1.00" arrival="199.00" arrivalLane="4o_0" arrivalPos="492.80" arrivalSpeed="11.79" duration="90.00" routeLength="995.70" waitingTime="1.00" waitingCount="1" stopTime="0.00" timeLoss="24.91" rerouteNo="0" devices="tripinfo_WE_108" vType="car" speedFactor="1.09" vaporized=""/>
    <tripinfo id="NS_109" depart="115.00" departLane="2i_0" departPos="4.10" departSpeed="0.00" departDelay="6.00" arrival="200.00" arrivalLane="1o_0" arrivalPos="492.80" arrivalSpeed="10.41" duration="85.00" routeLength="995.90" waitingTime="0.00" waitingCount="0" stopTime="0.00" timeLoss="16.64" rerouteNo="0" devices="tripinfo_NS_109" vType="car" speedFactor="1.04" vaporized=""/>
    <tripinfo id="NS_104" depart="109.00" departLane="2i_0" departPos="4.10" departSpeed="0.00" departDelay="5.00" arrival="201.00" arrivalLane="4o_0" arrivalPos="492.80" arrivalSpeed="11.11" duration="92.00" routeLength="990.53" waitingTime="4.00" waitingCount="2" stopTime="0.00" timeLoss="23.25" rerouteNo="0" devices="tripinfo_NS_104" vType="car" speedFactor="1.03" vaporized=""/>
    <tripinfo id="NS_106" depart="112.00" departLane="2i_0" departPos="4.10" departSpeed="0.00" departDelay="6.00" arrival="203.00" arrivalLane="4o_0" arrivalPos="492.80" arrivalSpeed="10.42" duration="91.00" routeLength="990.53" waitingTime="0.00" waitingCount="0" stopTime="0.00" timeLoss="17.04" rerouteNo="0" devices="tripinfo_NS_106" vType="car" speedFactor="0.96" vaporized=""/>
    <tripinfo id="NS_125" depart="125.00" departLane="2i_0" departPos="4.10" departSpeed="0.00" departDelay="0.00" arrival="205.00" arrivalLane="1o_0" arrivalPos="492.80" arrivalSpeed="10.72" duration="80.00" routeLength="995.90" waitingTime="0.00" waitingCount="0" stopTime="0.00" timeLoss="8.80" rerouteNo="0" devices="tripinfo_NS_125" vType="car" speedFactor="1.00" vaporized=""/>
    <tripinfo id="SN_130" depart="130.00" departLane="3i_0" departPos="4.10" departSpeed="0.00" departDelay="0.00" arrival="219.00" arrivalLane="2o_0" arrivalPos="492.80" arrivalSpeed="9.59" duration="89.00" routeLength="990.53" waitingTime="0.00" waitingCount="0" stopTime="0.00" timeLoss="10.36" rerouteNo="0" devices="tripinfo_SN_130" vType="car" speedFactor="0.90" vaporized=""/>
    <tripinfo id="WE_132" depart="132.00" departLane="1i_0" departPos="4.10" departSpeed="0.00" departDelay="0.00" arrival="221.00" arrivalLane="3o_0" arrivalPos="492.80" arrivalSpeed="8.72" duration="89.00" routeLength="990.53" waitingTime="0.00" waitingCount="0" stopTime="0.00" timeLoss="8.82" rerouteNo="0" devices="tripinfo_WE_132" vType="car" speedFactor="0.88" vaporized=""/>
    <tripinfo id="WE_136" depart="136.00" departLane="1i_0" departPos="4.10" departSpeed="0.00" departDelay="0.00" arrival="223.00" arrivalLane="3o_0" arrivalPos="492.80" arrivalSpeed="12.02" duration="87.00" routeLength="990.53" waitingTime="0.00" waitingCount="0" stopTime="0.00" timeLoss="26.42" rerouteNo="0" devices="tripinfo_WE_136" vType="car" speedFactor="1.17" vaporized=""/>
    <tripinfo id="WE_148" depart="148.00" departLane="1i_0" departPos="4.10" departSpeed="0.00" departDelay="0.00" arrival="225.00" arrivalLane="3o_0" arrivalPos="492.80" arrivalSpeed="12.22" duration="77.00" routeLength="990.53" waitingTime="0.00" waitingCount="0" stopTime="0.00" timeLoss="14.55" rerouteNo="0" devices="tripinfo_WE_148" vType="car" speedFactor="1.14" vaporized=""/>
    <tripinfo id="SN_134" depart="134.00" departLane="3i_0" departPos="4.10" departSpeed="0.00" departDelay="0.00" arrival="226.00" arrivalLane="2o_0" arrivalPos="492.80" arrivalSpeed="8.24" duration="92.00" routeLength="990.53" waitingTime="0.00" waitingCount="0" stopTime="0.00" timeLoss="9.48" rerouteNo="0" devices="tripinfo_SN_134" vType="car" speedFactor="0.85" vaporized=""/>
    <tripinfo id="EW_133" depart="133.00" departLane="4i_0" departPos="4.10" departSpeed="0.00" departDelay="0.00" arrival="228.00" arrivalLane="2o_0" arrivalPos="492.80" arrivalSpeed="8.61" duration="95.00" routeLength="995.70" waitingTime="0.00" waitingCount="0" stopTime="0.00" timeLoss="11.93" rerouteNo="0" devices="tripinfo_EW_133" vType="car" speedFactor="0.85" vaporized=""/>
    <tripinfo id="EW_138" depart="138.00" departLane="4i_0" departPos="4.10" departSpeed="0.00" departDelay="0.00" arrival="230.00" arrivalLane="2o_0" arrivalPos="492.80" arrivalSpeed="10.20" duration="92.00" routeLength="995.70" waitingTime="0.00" waitingCount="0" stopTime="0.00" timeLoss="22.18" rerouteNo="0" devices="tripinfo_EW_138" vType="car" speedFactor="1.02" vaporized=""/>
    <tripinfo id="WE_153" depart="153.00" departLane="1i_0" departPos="4.10" departSpeed="0.00" departDelay="0.00" arrival="230.00" arrivalLane="4o_0" arrivalPos="492.80" arrivalSpeed="12.43" duration="77.00" routeLength="995.70" waitingTime="0.00" waitingCount="0" stopTime="0.00" timeLoss="13.64" rerouteNo="0" devices="tripinfo_WE_153" vType="car" speedFactor="1.12" vaporized=""/>
    <tripinfo id="EW_139" depart="141.00" departLane="4i_0" departPos="4.10" departSpeed="0.00" departDelay="2.00" arrival="232.00" arrivalLane="2o_0" arrivalPos="492.80" arrivalSpeed="11.60" duration="91.00" routeLength="995.70" waitingTime="0.00" waitingCount="0" stopTime="0.00" timeLoss="25.79" rerouteNo="0" devices="tripinfo_EW_139" vType="car" speedFactor="1.10" vaporized=""/>
    <tripinfo id="NS_146" depart="146.00" departLane="2i_0" departPos="4.10" departSpeed="0.00" departDelay="0.00" arrival="234.00" arrivalLane="3o_0" arrivalPos="492.80" arrivalSpeed="9.49" duration="88.00" routeLength="995.70" waitingTime="0.00" waitingCount="0" stopTime="0.00" timeLoss="9.48" rerouteNo="0" devices="tripinfo_NS_146" vType="car" speedFactor="0.90" vaporized=""/>
    <tripinfo id="EW_140" depart="144.00" departLane="4i_0" departPos="4.10" departSpeed="0.00" departDelay="4.00" arrival="236.00" arrivalLane="3o_0" arrivalPos="492.80" arrivalSpeed="10.33" duration="92.00" routeLength="995.90" waitingTime="0.00" waitingCount="0" stopTime="0.00" timeLoss="21.53" rerouteNo="0" devices="tripinfo_EW_140" vType="car" speedFactor="1.00" vaporized=""/>
    <tripinfo id="EW_145" depart="147.00" departLane="4i_0" departPos="4.10" departSpeed="0.00" departDelay="2.00" arrival="238.00" arrivalLane="2o_0" arrivalPos="492.80" arrivalSpeed="10.76" duration="91.00" routeLength="995.70" waitingTime="3.00" waitingCount="1" stopTime="0.00" timeLoss="19.94" rerouteNo="0" devices="tripinfo_EW_145" vType="car" speedFactor="1.00" vaporized=""/>
    <tripinfo id="EW_148" depart="150.00" departLane="4i_0" departPos="4.10" departSpeed="0.00" departDelay="2.00" arrival="239.00" arrivalLane="3o_0" arrivalPos="492.80" arrivalSpeed="10.73" duration="89.00" routeLength="995.90" waitingTime="3.00" waitingCount="1" stopTime="0.00" timeLoss="19.30" rerouteNo="0" devices="tripinfo_EW_148" vType="car" speedFactor="1.02" vaporized=""/>
    <tripinfo id="EW_149" depart="153.00" departLane="4i_0" departPos="4.10" departSpeed="0.00" departDelay="4.00" arrival="245.00" arrivalLane="2o_0" arrivalPos="492.80" arrivalSpeed="10.38" duration="92.00" routeLength="995.70" waitingTime="1.00" waitingCount="1" stopTime="0.00" timeLoss="18.29" rerouteNo="0" devices="tripinfo_EW_149" vType="car" speedFactor="0.97" vaporized=""/>
    <tripinfo id="SN_153" depart="153.00" departLane="3i_0" departPos="4.10" departSpeed="0.00" departDelay="0.00" arrival="245.00" arrivalLane="1o_0" arrivalPos="492.80" arrivalSpeed="10.83" duration="92.00" routeLength="995.70" waitingTime="6.00" waitingCount="2" stopTime="0.00" timeLoss="22.14" rerouteNo="0" devices="tripinfo_SN_153" vType="car" speedFactor="1.02" vaporized=""/>
    <tripinfo id="EW_150" depart="156.00" departLane="4i_0" departPos="4.10" departSpeed="0.00" departDelay="6.00" arrival="247.00" arrivalLane="1o_0" arrivalPos="492.80" arrivalSpeed="11.27" duration="91.00" routeLength="990.53" waitingTime="2.00" waitingCount="2" stopTime="0.00" timeLoss="25.48" rerouteNo="0" devices="tripinfo_EW_150" vType="car" speedFactor="1.08" vaporized=""/>
    <tripinfo id="WE_160" depart="160.00" departLane="1i_0" departPos="4.10" departSpeed="0.00" departDelay="0.00" arrival="253.00" arrivalLane="2o_0" arrivalPos="492.80" arrivalSpeed="10.34" duration="93.00" routeLength="995.90" waitingTime="1.00" waitingCount="1" stopTime="0.00" timeLoss="16.90" rerouteNo="0" devices="tripinfo_WE_160" vType="car" speedFactor="0.94" vaporized=""/>
    <tripinfo id="SN_175" depart="175.00" departLane="3i_0" departPos="4.10" departSpeed="0.00" departDelay="0.00" arrival="253.00" arrivalLane="4o_0" arrivalPos="492.80" arrivalSpeed="11.12" duration="78.00" routeLength="995.90" waitingTime="0.00" waitingCount="0" stopTime="0.00" timeLoss="10.03" rerouteNo="0" devices="tripinfo_SN_175" vType="car" speedFactor="1.04" vaporized=""/>
    <tripinfo id="SN_156" depart="156.00" departLane="3i_0" departPos="4.10" departSpeed="0.00" departDelay="0.00" arrival="254.00" arrivalLane="2o_0" arrivalPos="492.80" arrivalSpeed="10.82" duration="98.00" routeLength="990.53" waitingTime="7.00" waitingCount="2" stopTime="0.00" timeLoss="26.81" rerouteNo="0" devices="tripinfo_SN_156" vType="car" speedFactor="0.99" vaporized=""/>
    <tripinfo id="EW_160" depart="163.00" departLane="4i_0" departPos="4.10" departSpeed="0.00" departDelay="3.00" arrival="261.00" arrivalLane="3o_0" arrivalPos="492.80" arrivalSpeed="8.80" duration="98.00" routeLength="995.90" waitingTime="2.00" waitingCount="1" stopTime="0.00" timeLoss="17.28" rerouteNo="0" devices="tripinfo_EW_160" vType="car" speedFactor="0.88" vaporized=""/>
    <tripinfo id="EW_171" depart="171.00" departLane="4i_0" departPos="4.10" departSpeed="0.00" departDelay="0.00" arrival="261.00" arrivalLane="1o_0" arrivalPos="492.80" arrivalSpeed="9.30" duration="90.00" routeLength="990.53" waitingTime="0.00" waitingCount="0" stopTime="0.00" timeLoss="11.79" rerouteNo="0" devices="tripinfo_EW_171" vType="car" speedFactor="0.91" vaporized=""/>
    <tripinfo id="NS_176" depart="176.00" departLane="2i_0" departPos="4.10" departSpeed="0.00" departDelay="0.00" arrival="262.00" arrivalLane="1o_0" arrivalPos="492.80" arrivalSpeed="11.17" duration="86.00" routeLength="995.90" waitingTime="0.00" waitingCount="0" stopTime="0.00" timeLoss="16.88" rerouteNo="0" devices="tripinfo_NS_176" vType="car" speedFactor="1.02" vaporized=""/>
    <tripinfo id="EW_173" depart="173.00" departLane="4i_0" departPos="4.10" departSpeed="0.00" departDelay="0.00" arrival="267.00" arrivalLane="1o_0" arrivalPos="492.80" arrivalSpeed="10.13" duration="94.00" routeLength="990.53" waitingTime="1.00" waitingCount="1" stopTime="0.00" timeLoss="17.05" rerouteNo="0" devices="tripinfo_EW_173" vType="car" speedFactor="0.91" vaporized=""/>
    <tripinfo id="NS_182" depart="182.00" departLane="2i_0" departPos="4.10" departSpeed="0.00" departDelay="0.00" arrival="269.00" arrivalLane="1o_0" arrivalPos="492.80" arrivalSpeed="10.11" duration="87.00" routeLength="995.90" waitingTime="0.00" waitingCount="0" stopTime="0.00" timeLoss="17.62" rerouteNo="0" devices="tripinfo_NS_182" vType="car" speedFactor="1.02" vaporized=""/>
    <tripinfo id="NS_189" depart="189.00" departLane="2i_0" departPos="4.10" departSpeed="0.00" departDelay="0.00" arrival="273.00" arrivalLane="4o_0" arrivalPos="492.80" arrivalSpeed="10.44" duration="84.00" routeLength="990.53" waitingTime="0.00" waitingCount="0" stopTime="0.00" timeLoss="8.85" rerouteNo="0" devices="tripinfo_NS_189" vType="car" speedFactor="0.94" vaporized=""/>
    <tripinfo id="EW_189" depart="189.00" departLane="4i_0" departPos="4.10" departSpeed="0.00" departDelay="0.00" arrival="275.00" arrivalLane="1o_0" arrivalPos="492.80" arrivalSpeed="9.98" duration="86.00" routeLength="990.53" waitingTime="4.00" waitingCount="1" stopTime="0.00" timeLoss="13.24" rerouteNo="0" devices="tripinfo_EW_189" vType="car" speedFactor="0.97" vaporized=""/>
    <tripinfo id="NS_194" depart="195.00" departLane="2i_0" departPos="4.10" departSpeed="0.00" departDelay="1.00" arrival="277.00" arrivalLane="1o_0" arrivalPos="492.80" arrivalSpeed="11.35" duration="82.00" routeLength="995.90" waitingTime="0.00" waitingCount="0" stopTime="0.00" timeLoss="14.26" rerouteNo="0" devices="tripinfo_NS_194" vType="car" speedFactor="1.06" vaporized=""/>
    <tripinfo id="NS_197" depart="198.00" departLane="2i_0" departPos="4.10" departSpeed="0.00" departDelay="1.00" arrival="284.00" arrivalLane="3o_0" arrivalPos="492.80" arrivalSpeed="9.82" duration="86.00" routeLength="995.70" waitingTime="0.00" waitingCount="0" stopTime="0.00" timeLoss="11.86" rerouteNo="0" devices="tripinfo_NS_197" vType="car" speedFactor="0.96" vaporized=""/>
    <tripinfo id="WE_200" depart="200.00" departLane="1i_0" departPos="4.10" departSpeed="0.00" departDelay="0.00" arrival="286.00" arrivalLane="4o_0" arrivalPos="492.80" arrivalSpeed="10.92" duration="86.00" routeLength="995.70" waitingTime="2.00" waitingCount="1" stopTime="0.00" timeLoss="13.94" rerouteNo="0" devices="tripinfo_WE_200" vType="car" speedFactor="0.98" vaporized=""/>