<?xml version="1.0" encoding="UTF-8"?>

<!-- generated on 2024-05-04 17:34:52 by Eclipse SUMO sumo Version 1.19.0
<configuration xmlns:xsi="http://www.w3.org/2001/XMLSchema-instance" xsi:noNamespaceSchemaLocation="http://sumo.dlr.de/xsd/sumoConfiguration.xsd">

    <input>
        <net-file value="test5.net.xml"/>
        <route-files value="route_gen.rou.xml"/>
    </input>

    <output>
        <tripinfo-output value="tripinfo_epi196.xml"/>
    </output>

    <report>
        <no-warnings value="true"/>
    </report>

    <traci_server>
        <remote-port value="44219"/>
    </traci_server>

</configuration>
-->

<tripinfos xmlns:xsi="http://www.w3.org/2001/XMLSchema-instance" xsi:noNamespaceSchemaLocation="http://sumo.dlr.de/xsd/tripinfo_file.xsd">
    <tripinfo id="NS_0" depart="0.00" departLane="2i_0" departPos="4.10" departSpeed="0.00" departDelay="0.00" arrival="80.00" arrivalLane="4o_0" arrivalPos="492.80" arrivalSpeed="10.72" duration="80.00" routeLength="990.53" waitingTime="1.00" waitingCount="1" stopTime="0.00" timeLoss="13.38" rerouteNo="0" devices="tripinfo_NS_0" vType="car" speedFactor="1.06" vaporized=""/>
    <tripinfo id="EW_6" depart="6.00" departLane="4i_0" departPos="4.10" departSpeed="0.00" departDelay="0.00" arrival="90.00" arrivalLane="3o_0" arrivalPos="492.80" arrivalSpeed="9.42" duration="84.00" routeLength="995.90" waitingTime="0.00" waitingCount="0" stopTime="0.00" timeLoss="8.20" rerouteNo="0" devices="tripinfo_EW_6" vType="car" speedFactor="0.94" vaporized=""/>
    <tripinfo id="NS_9" depart="9.00" departLane="2i_0" departPos="4.10" departSpeed="0.00" departDelay="0.00" arrival="90.00" arrivalLane="1o_0" arrivalPos="492.80" arrivalSpeed="10.45" duration="81.00" routeLength="995.90" waitingTime="0.00" waitingCount="0" stopTime="0.00" timeLoss="10.25" rerouteNo="0" devices="tripinfo_NS_9" vType="car" speedFactor="1.01" vaporized=""/>
    <tripinfo id="WE_12" depart="12.00" departLane="1i_0" departPos="4.10" departSpeed="0.00" departDelay="0.00" arrival="91.00" arrivalLane="3o_0" arrivalPos="492.80" arrivalSpeed="11.95" duration="79.00" routeLength="990.53" waitingTime="0.00" waitingCount="0" stopTime="0.00" timeLoss="13.82" rerouteNo="0" devices="tripinfo_WE_12" vType="car" speedFactor="1.08" vaporized=""/>
    <tripinfo id="SN_23" depart="23.00" departLane="3i_0" departPos="4.10" departSpeed="0.00" departDelay="0.00" arrival="100.00" arrivalLane="1o_0" arrivalPos="492.80" arrivalSpeed="10.41" duration="77.00" routeLength="995.70" waitingTime="0.00" waitingCount="0" stopTime="0.00" timeLoss="9.07" rerouteNo="0" devices="tripinfo_SN_23" vType="car" speedFactor="1.05" vaporized=""/>
    <tripinfo id="SN_34" depart="34.00" departLane="3i_0" departPos="4.10" departSpeed="0.00" departDelay="0.00" arrival="107.00" arrivalLane="4o_0" arrivalPos="492.80" arrivalSpeed="11.04" duration="73.00" routeLength="995.90" waitingTime="0.00" waitingCount="0" stopTime="0.00" timeLoss="8.06" rerouteNo="0" devices="tripinfo_SN_34" vType="car" speedFactor="1.09" vaporized=""/>
    <tripinfo id="WE_18" depart="18.00" departLane="1i_0" departPos="4.10" departSpeed="0.00" departDelay="0.00" arrival="112.00" arrivalLane="3o_0" arrivalPos="492.80" arrivalSpeed="11.22" duration="94.00" routeLength="990.53" waitingTime="13.00" waitingCount="1" stopTime="0.00" timeLoss="25.66" rerouteNo="0" devices="tripinfo_WE_18" vType="car" speedFactor="1.03" vaporized=""/>
    <tripinfo id="NS_32" depart="32.00" departLane="2i_0" departPos="4.10" departSpeed="0.00" departDelay="0.00" arrival="119.00" arrivalLane="3o_0" arrivalPos="492.80" arrivalSpeed="10.26" duration="87.00" routeLength="995.70" waitingTime="0.00" waitingCount="0" stopTime="0.00" timeLoss="11.68" rerouteNo="0" devices="tripinfo_NS_32" vType="car" speedFactor="0.94" vaporized=""/>
    <tripinfo id="SN_46" depart="46.00" departLane="3i_0" departPos="4.10" departSpeed="0.00" departDelay="0.00" arrival="120.00" arrivalLane="1o_0" arrivalPos="492.80" arrivalSpeed="12.33" duration="74.00" routeLength="995.70" waitingTime="0.00" waitingCount="0" stopTime="0.00" timeLoss="10.61" rerouteNo="0" devices="tripinfo_SN_46" vType="car" speedFactor="1.12" vaporized=""/>
    <tripinfo id="EW_34" depart="34.00" departLane="4i_0" departPos="4.10" departSpeed="0.00" departDelay="0.00" arrival="126.00" arrivalLane="3o_0" arrivalPos="492.80" arrivalSpeed="9.29" duration="92.00" routeLength="995.90" waitingTime="0.00" waitingCount="0" stopTime="0.00" timeLoss="9.61" rerouteNo="0" devices="tripinfo_EW_34" vType="car" speedFactor="0.86" vaporized=""/>
    <tripinfo id="WE_47" depart="47.00" departLane="1i_0" departPos="4.10" departSpeed="0.00" departDelay="0.00" arrival="134.00" arrivalLane="2o_0" arrivalPos="492.80" arrivalSpeed="10.12" duration="87.00" routeLength="995.90" waitingTime="0.00" waitingCount="0" stopTime="0.00" timeLoss="15.15" rerouteNo="0" devices="tripinfo_WE_47" vType="car" speedFactor="0.99" vaporized=""/>
    <tripinfo id="WE_19" depart="20.00" departLane="1i_0" departPos="4.10" departSpeed="0.00" departDelay="1.00" arrival="135.00" arrivalLane="3o_0" arrivalPos="492.80" arrivalSpeed="8.36" duration="115.00" routeLength="990.53" waitingTime="12.00" waitingCount="2" stopTime="0.00" timeLoss="29.76" rerouteNo="0" devices="tripinfo_WE_19" vType="car" speedFactor="0.83" vaporized=""/>
    <tripinfo id="NS_40" depart="40.00" departLane="2i_0" departPos="4.10" departSpeed="0.00" departDelay="0.00" arrival="136.00" arrivalLane="3o_0" arrivalPos="492.80" arrivalSpeed="10.87" duration="96.00" routeLength="995.70" waitingTime="1.00" waitingCount="1" stopTime="0.00" timeLoss="27.15" rerouteNo="0" devices="tripinfo_NS_40" vType="car" speedFactor="1.03" vaporized=""/>
    <tripinfo id="WE_26" depart="26.00" departLane="1i_0" departPos="4.10" departSpeed="0.00" departDelay="0.00" arrival="138.00" arrivalLane="3o_0" arrivalPos="492.80" arrivalSpeed="9.16" duration="112.00" routeLength="990.53" waitingTime="11.00" waitingCount="3" stopTime="0.00" timeLoss="32.70" rerouteNo="0" devices="tripinfo_WE_26" vType="car" speedFactor="0.89" vaporized=""/>
    <tripinfo id="NS_42" depart="43.00" departLane="2i_0" departPos="4.10" departSpeed="0.00" departDelay="1.00" arrival="140.00" arrivalLane="3o_0" arrivalPos="492.80" arrivalSpeed="10.43" duration="97.00" routeLength="995.70" waitingTime="5.00" waitingCount="2" stopTime="0.00" timeLoss="29.41" rerouteNo="0" devices="tripinfo_NS_42" vType="car" speedFactor="1.05" vaporized=""/>
    <tripinfo id="EW_60" depart="60.00" departLane="4i_0" departPos="4.10" departSpeed="0.00" departDelay="0.00" arrival="144.00" arrivalLane="1o_0" arrivalPos="492.80" arrivalSpeed="9.10" duration="84.00" routeLength="990.53" waitingTime="0.00" waitingCount="0" stopTime="0.00" timeLoss="8.38" rerouteNo="0" devices="tripinfo_EW_60" vType="car" speedFactor="0.94" vaporized=""/>
    <tripinfo id="WE_52" depart="52.00" departLane="1i_0" departPos="4.10" departSpeed="0.00" departDelay="0.00" arrival="145.00" arrivalLane="3o_0" arrivalPos="492.80" arrivalSpeed="9.29" duration="93.00" routeLength="990.53" waitingTime="2.00" waitingCount="1" stopTime="0.00" timeLoss="16.52" rerouteNo="0" devices="tripinfo_WE_52" vType="car" speedFactor="0.93" vaporized=""/>
    <tripinfo id="SN_61" depart="61.00" departLane="3i_0" departPos="4.10" departSpeed="0.00" departDelay="0.00" arrival="146.00" arrivalLane="1o_0" arrivalPos="492.80" arrivalSpeed="10.33" duration="85.00" routeLength="995.70" waitingTime="0.00" waitingCount="0" stopTime="0.00" timeLoss="14.93" rerouteNo="0" devices="tripinfo_SN_61" vType="car" speedFactor="1.02" vaporized=""/>
    <tripinfo id="NS_65" depart="65.00" departLane="2i_0" departPos="4.10" departSpeed="0.00" departDelay="0.00" arrival="151.00" arrivalLane="3o_0" arrivalPos="492.80" arrivalSpeed="10.81" duration="86.00" routeLength="995.70" waitingTime="1.00" waitingCount="1" stopTime="0.00" timeLoss="13.47" rerouteNo="0" devices="tripinfo_NS_65" vType="car" speedFactor="0.97" vaporized=""/>
    <tripinfo id="WE_53" depart="55.00" departLane="1i_0" departPos="4.10" departSpeed="0.00" departDelay="2.00" arrival="152.00" arrivalLane="4o_0" arrivalPos="492.80" arrivalSpeed="9.57" duration="97.00" routeLength="995.70" waitingTime="0.00" waitingCount="0" stopTime="0.00" timeLoss="16.60" rerouteNo="0" devices="tripinfo_WE_53" vType="car" speedFactor="0.88" vaporized=""/>
    <tripinfo id="WE_60" depart="60.00" departLane="1i_0" departPos="4.10" departSpeed="0.00" departDelay="0.00" arrival="154.00" arrivalLane="4o_0" arrivalPos="492.80" arrivalSpeed="9.37" duration="94.00" routeLength="995.70" waitingTime="0.00" waitingCount="0" stopTime="0.00" timeLoss="18.95" rerouteNo="0" devices="tripinfo_WE_60" vType="car" speedFactor="0.94" vaporized=""/>
    <tripinfo id="SN_75" depart="75.00" departLane="3i_0" departPos="4.10" departSpeed="0.00" departDelay="0.00" arrival="162.00" arrivalLane="4o_0" arrivalPos="492.80" arrivalSpeed="11.33" duration="87.00" routeLength="995.90" waitingTime="4.00" waitingCount="2" stopTime="0.00" timeLoss="24.12" rerouteNo="0" devices="tripinfo_SN_75" vType="car" speedFactor="1.13" vaporized=""/>
    <tripinfo id="NS_83" depart="83.00" departLane="2i_0" departPos="4.10" departSpeed="0.00" departDelay="0.00" arrival="164.00" arrivalLane="3o_0" arrivalPos="492.80" arrivalSpeed="11.59" duration="81.00" routeLength="995.70" waitingTime="6.00" waitingCount="2" stopTime="0.00" timeLoss="19.72" rerouteNo="0" devices="tripinfo_NS_83" vType="car" speedFactor="1.15" vaporized=""/>
    <tripinfo id="EW_72" depart="73.00" departLane="4i_0" departPos="4.10" departSpeed="0.00" departDelay="1.00" arrival="165.00" arrivalLane="1o_0" arrivalPos="492.80" arrivalSpeed="9.08" duration="92.00" routeLength="990.53" waitingTime="0.00" waitingCount="0" stopTime="0.00" timeLoss="10.51" rerouteNo="0" devices="tripinfo_EW_72" vType="car" speedFactor="0.87" vaporized=""/>
    <tripinfo id="SN_73" depart="73.00" departLane="3i_0" departPos="4.10" departSpeed="0.00" departDelay="0.00" arrival="166.00" arrivalLane="1o_0" arrivalPos="492.80" arrivalSpeed="9.14" duration="93.00" routeLength="995.70" waitingTime="3.00" waitingCount="1" stopTime="0.00" timeLoss="15.92" rerouteNo="0" devices="tripinfo_SN_73" vType="car" speedFactor="0.92" vaporized=""/>
    <tripinfo id="EW_70" depart="70.00" departLane="4i_0" departPos="4.10" departSpeed="0.00" departDelay="0.00" arrival="167.00" arrivalLane="2o_0" arrivalPos="492.80" arrivalSpeed="9.06" duration="97.00" routeLength="995.70" waitingTime="0.00" waitingCount="0" stopTime="0.00" timeLoss="10.85" rerouteNo="0" devices="tripinfo_EW_70" vType="car" speedFactor="0.83" vaporized=""/>
    <tripinfo id="WE_61" depart="63.00" departLane="1i_0" departPos="4.10" departSpeed="0.00" departDelay="2.00" arrival="169.00" arrivalLane="2o_0" arrivalPos="492.80" arrivalSpeed="12.75" duration="106.00" routeLength="995.90" waitingTime="5.00" waitingCount="2" stopTime="0.00" timeLoss="44.19" rerouteNo="0" devices="tripinfo_WE_61" vType="car" speedFactor="1.16" vaporized=""/>
    <tripinfo id="WE_62" depart="66.00" departLane="1i_0" departPos="4.10" departSpeed="0.00" departDelay="4.00" arrival="171.00" arrivalLane="4o_0" arrivalPos="492.80" arrivalSpeed="10.43" duration="105.00" routeLength="995.70" waitingTime="6.00" waitingCount="3" stopTime="0.00" timeLoss="34.83" rerouteNo="0" devices="tripinfo_WE_62" vType="car" speedFactor="1.01" vaporized=""/>
    <tripinfo id="NS_87" depart="87.00" departLane="2i_0" departPos="4.10" departSpeed="0.00" departDelay="0.00" arrival="173.00" arrivalLane="4o_0" arrivalPos="492.80" arrivalSpeed="10.93" duration="86.00" routeLength="990.53" waitingTime="1.00" waitingCount="1" stopTime="0.00" timeLoss="15.27" rerouteNo="0" devices="tripinfo_NS_87" vType="car" speedFactor="0.99" vaporized=""/>
    <tripinfo id="SN_96" depart="96.00" departLane="3i_0" departPos="10.10" departSpeed="0.00" departDelay="0.00" arrival="175.00" arrivalLane="2o_0" arrivalPos="492.80" arrivalSpeed="11.96" duration="79.00" routeLength="984.53" waitingTime="0.00" waitingCount="0" stopTime="0.00" timeLoss="12.68" rerouteNo="0" devices="tripinfo_SN_96" vType="truck" speedFactor="1.09" vaporized=""/>
    <tripinfo id="SN_97" depart="100.00" departLane="3i_0" departPos="4.10" departSpeed="0.00" departDelay="3.00" arrival="178.00" arrivalLane="2o_0" arrivalPos="492.80" arrivalSpeed="10.97" duration="78.00" routeLength="990.53" waitingTime="0.00" waitingCount="0" stopTime="0.00" timeLoss="13.27" rerouteNo="0" devices="tripinfo_SN_97" vType="car" speedFactor="1.10" vaporized=""/>
    <tripinfo id="WE_68" depart="69.00" departLane="1i_0" departPos="4.10" departSpeed="0.00" departDelay="1.00" arrival="179.00" arrivalLane="3o_0" arrivalPos="492.80" arrivalSpeed="8.88" duration="110.00" routeLength="990.53" waitingTime="2.00" waitingCount="2" stopTime="0.00" timeLoss="30.24" rerouteNo="0" devices="tripinfo_WE_68" vType="car" speedFactor="0.89" vaporized=""/>
    <tripinfo id="NS_90" depart="90.00" departLane="2i_0" departPos="4.10" departSpeed="0.00" departDelay="0.00" arrival="179.00" arrivalLane="4o_0" arrivalPos="492.80" arrivalSpeed="10.47" duration="89.00" routeLength="990.53" waitingTime="1.00" waitingCount="1" stopTime="0.00" timeLoss="20.06" rerouteNo="0" devices="tripinfo_NS_90" vType="car" speedFactor="1.02" vaporized=""/>
    <tripinfo id="NS_107" depart="107.00" departLane="2i_0" departPos="4.10" departSpeed="0.00" departDelay="0.00" arrival="183.00" arrivalLane="3o_0" arrivalPos="492.80" arrivalSpeed="11.06" duration="76.00" routeLength="995.70" waitingTime="0.00" waitingCount="0" stopTime="0.00" timeLoss="10.77" rerouteNo="0" devices="tripinfo_NS_107" vType="car" speedFactor="1.09" vaporized=""/>
    <tripinfo id="NS_94" depart="94.00" departLane="2i_0" departPos="4.10" departSpeed="0.00" departDelay="0.00" arrival="185.00" arrivalLane="1o_0" arrivalPos="492.80" arrivalSpeed="10.61" duration="91.00" routeLength="995.90" waitingTime="1.00" waitingCount="1" stopTime="0.00" timeLoss="18.42" rerouteNo="0" devices="tripinfo_NS_94" vType="car" speedFactor="0.97" vaporized=""/>
    <tripinfo id="EW_86" depart="86.00" departLane="4i_0" departPos="4.10" departSpeed="0.00" departDelay="0.00" arrival="190.00" arrivalLane="1o_0" arrivalPos="492.80" arrivalSpeed="12.59" duration="104.00" routeLength="990.53" waitingTime="22.00" waitingCount="1" stopTime="0.00" timeLoss="43.65" rerouteNo="0" devices="tripinfo_EW_86" vType="car" speedFactor="1.17" vaporized=""/>
    <tripinfo id="EW_75" depart="77.00" departLane="4i_0" departPos="10.10" departSpeed="0.00" departDelay="2.00" arrival="194.00" arrivalLane="2o_0" arrivalPos="492.80" arrivalSpeed="10.45" duration="117.00" routeLength="989.70" waitingTime="24.00" waitingCount="1" stopTime="0.00" timeLoss="44.69" rerouteNo="0" devices="tripinfo_EW_75" vType="truck" speedFactor="0.97" vaporized=""/>
    <tripinfo id="WE_77" depart="78.00" departLane="1i_0" departPos="4.10" departSpeed="0.00" departDelay="1.00" arrival="199.00" arrivalLane="4o_0" arrivalPos="492.80" arrivalSpeed="11.86" duration="121.00" routeLength="995.70" waitingTime="18.00" waitingCount="3" stopTime="0.00" timeLoss="60.68" rerouteNo="0" devices="tripinfo_WE_77" vType="car" speedFactor="1.18" vaporized=""/>
    <tripinfo id="WE_76" depart="76.00" departLane="1i_0" departPos="4.10" departSpeed="0.00" departDelay="0.00" arrival="200.00" arrivalLane="2o_0" arrivalPos="492.80" arrivalSpeed="9.30" duration="124.00" routeLength="995.90" waitingTime="16.00" waitingCount="4" stopTime="0.00" timeLoss="47.76" rerouteNo="0" devices="tripinfo_WE_76" vType="car" speedFactor="0.93" vaporized=""/>
    <tripinfo id="EW_104" depart="104.00" departLane="4i_0" departPos="4.10" departSpeed="0.00" departDelay="0.00" arrival="202.00" arrivalLane="3o_0" arrivalPos="492.80" arrivalSpeed="9.65" duration="98.00" routeLength="995.90" waitingTime="6.00" waitingCount="1" stopTime="0.00" timeLoss="24.25" rerouteNo="0" devices="tripinfo_EW_104" vType="car" speedFactor="0.96" vaporized=""/>
    <tripinfo id="SN_116" depart="116.00" departLane="3i_0" departPos="10.10" departSpeed="0.00" departDelay="0.00" arrival="202.00" arrivalLane="2o_0" arrivalPos="492.80" arrivalSpeed="10.77" duration="86.00" routeLength="984.53" waitingTime="0.00" waitingCount="0" stopTime="0.00" timeLoss="17.23" rerouteNo="0" devices="tripinfo_SN_116" vType="truck" speedFactor="1.02" vaporized=""/>
    <tripinfo id="SN_117" depart="120.00" departLane="3i_0" departPos="4.10" departSpeed="0.00" departDelay="3.00" arrival="206.00" arrivalLane="4o_0" arrivalPos="492.80" arrivalSpeed="10.99" duration="86.00" routeLength="995.90" waitingTime="0.00" waitingCount="0" stopTime="0.00" timeLoss="18.21" rerouteNo="0" devices="tripinfo_SN_117" vType="car" speedFactor="1.04" vaporized=""/>
    <tripinfo id="NS_119" depart="119.00" departLane="2i_0" departPos="4.10" departSpeed="0.00" departDelay="0.00" arrival="210.00" arrivalLane="3o_0" arrivalPos="492.80" arrivalSpeed="10.00" duration="91.00" routeLength="995.70" waitingTime="0.00" waitingCount="0" stopTime="0.00" timeLoss="12.50" rerouteNo="0" devices="tripinfo_NS_119" vType="car" speedFactor="0.90" vaporized=""/>
    <tripinfo id="EW_118" depart="118.00" departLane="4i_0" departPos="4.10" departSpeed="0.00" departDelay="0.00" arrival="213.00" arrivalLane="2o_0" arrivalPos="492.80" arrivalSpeed="11.32" duration="95.00" routeLength="995.70" waitingTime="10.00" waitingCount="1" stopTime="0.00" timeLoss="29.33" rerouteNo="0" devices="tripinfo_EW_118" vType="car" speedFactor="1.09" vaporized=""/>
    <tripinfo id="EW_126" depart="126.00" departLane="4i_0" departPos="4.10" departSpeed="0.00" departDelay="0.00" arrival="213.00" arrivalLane="1o_0" arrivalPos="492.80" arrivalSpeed="12.97" duration="87.00" routeLength="990.53" waitingTime="6.00" waitingCount="1" stopTime="0.00" timeLoss="26.26" rerouteNo="0" devices="tripinfo_EW_126" vType="car" speedFactor="1.17" vaporized=""/>
    <tripinfo id="WE_84" depart="84.00" departLane="1i_0" departPos="4.10" departSpeed="0.00" departDelay="0.00" arrival="222.00" arrivalLane="2o_0" arrivalPos="492.80" arrivalSpeed="10.28" duration="138.00" routeLength="995.90" waitingTime="26.00" waitingCount="6" stopTime="0.00" timeLoss="67.08" rerouteNo="0" devices="tripinfo_WE_84" vType="car" speedFactor="1.01" vaporized=""/>
    <tripinfo id="EW_129" depart="129.00" departLane="4i_0" departPos="4.10" departSpeed="0.00" departDelay="0.00" arrival="224.00" arrivalLane="1o_0" arrivalPos="492.80" arrivalSpeed="10.03" duration="95.00" routeLength="990.53" waitingTime="7.00" waitingCount="2" stopTime="0.00" timeLoss="25.26" rerouteNo="0" devices="tripinfo_EW_129" vType="car" speedFactor="1.02" vaporized=""/>
    <tripinfo id="EW_123" depart="123.00" departLane="4i_0" departPos="4.10" departSpeed="0.00" departDelay="0.00" arrival="227.00" arrivalLane="3o_0" arrivalPos="492.80" arrivalSpeed="8.51" duration="104.00" routeLength="995.90" waitingTime="7.00" waitingCount="1" stopTime="0.00" timeLoss="21.40" rerouteNo="0" devices="tripinfo_EW_123" vType="car" speedFactor="0.85" vaporized=""/>
    <tripinfo id="SN_118" depart="123.00" departLane="3i_0" departPos="4.10" departSpeed="0.00" departDelay="5.00" arrival="228.00" arrivalLane="1o_0" arrivalPos="492.80" arrivalSpeed="9.96" duration="105.00" routeLength="995.70" waitingTime="13.00" waitingCount="1" stopTime="0.00" timeLoss="33.95" rerouteNo="0" devices="tripinfo_SN_118" vType="car" speedFactor="1.00" vaporized=""/>
    <tripinfo id="WE_101" depart="102.00" departLane="1i_0" departPos="4.10" departSpeed="0.00" departDelay="1.00" arrival="229.00" arrivalLane="2o_0" arrivalPos="492.80" arrivalSpeed="10.76" duration="127.00" routeLength="995.90" waitingTime="19.00" waitingCount="5" stopTime="0.00" timeLoss="57.93" rerouteNo="0" devices="tripinfo_WE_101" vType="car" speedFactor="1.03" vaporized=""/>
    <tripinfo id="NS_139" depart="139.00" departLane="2i_0" departPos="4.10" departSpeed="0.00" departDelay="0.00" arrival="230.00" arrivalLane="1o_0" arrivalPos="492.80" arrivalSpeed="10.10" duration="91.00" routeLength="995.90" waitingTime="5.00" waitingCount="2" stopTime="0.00" timeLoss="21.48" rerouteNo="0" devices="tripinfo_NS_139" vType="car" speedFactor="1.02" vaporized=""/>
    <tripinfo id="WE_99" depart="100.00" departLane="1i_0" departPos="4.10" departSpeed="0.00" departDelay="1.00" arrival="231.00" arrivalLane="4o_0" arrivalPos="492.80" arrivalSpeed="8.71" duration="131.00" routeLength="995.70" waitingTime="24.00" waitingCount="6" stopTime="0.00" timeLoss="52.60" rerouteNo="0" devices="tripinfo_WE_99" vType="car" speedFactor="0.90" vaporized=""/>
    <tripinfo id="EW_133" depart="133.00" departLane="4i_0" departPos="4.10" departSpeed="0.00" departDelay="0.00" arrival="232.00" arrivalLane="1o_0" arrivalPos="492.80" arrivalSpeed="10.89" duration="99.00" routeLength="990.53" waitingTime="7.00" waitingCount="3" stopTime="0.00" timeLoss="34.15" rerouteNo="0" devices="tripinfo_EW_133" vType="car" speedFactor="1.10" vaporized=""/>
    <tripinfo id="WE_134" depart="134.00" departLane="1i_0" departPos="4.10" departSpeed="0.00" departDelay="0.00" arrival="233.00" arrivalLane="2o_0" arrivalPos="492.80" arrivalSpeed="10.70" duration="99.00" routeLength="995.90" waitingTime="3.00" waitingCount="3" stopTime="0.00" timeLoss="27.68" rerouteNo="0" devices="tripinfo_WE_134" vType="car" speedFactor="1.00" vaporized=""/>
    <tripinfo id="EW_139" depart="139.00" departLane="4i_0" departPos="4.10" departSpeed="0.00" departDelay="0.00" arrival="233.00" arrivalLane="1o_0" arrivalPos="492.80" arrivalSpeed="11.74" duration="94.00" routeLength="990.53" waitingTime="4.00" waitingCount="2" stopTime="0.00" timeLoss="32.29" rerouteNo="0" devices="tripinfo_EW_139" vType="car" speedFactor="1.14" vaporized=""/>
    <tripinfo id="EW_143" depart="143.00" departLane="4i_0" departPos="4.10" departSpeed="0.00" departDelay="0.00" arrival="234.00" arrivalLane="3o_0" arrivalPos="492.80" arrivalSpeed="11.66" duration="91.00" routeLength="995.90" waitingTime="0.00" waitingCount="0" stopTime="0.00" timeLoss="25.46" rerouteNo="0" devices="tripinfo_EW_143" vType="car" speedFactor="1.08" vaporized=""/>
    <tripinfo id="NS_145" depart="145.00" departLane="2i_0" departPos="10.10" departSpeed="0.00" departDelay="0.00" arrival="238.00" arrivalLane="4o_0" arrivalPos="492.80" arrivalSpeed="10.93" duration="93.00" routeLength="984.53" waitingTime="1.00" waitingCount="1" stopTime="0.00" timeLoss="23.07" rerouteNo="0" devices="tripinfo_NS_145" vType="truck" speedFactor="1.01" vaporized=""/>
    <tripinfo id="EW_160" depart="162.00" departLane="4i_0" departPos="4.10" departSpeed="0.00" departDelay="2.00" arrival="240.00" arrivalLane="3o_0" arrivalPos="492.80" arrivalSpeed="10.92" duration="78.00" routeLength="995.90" waitingTime="0.00" waitingCount="0" stopTime="0.00" timeLoss="9.49" rerouteNo="0" devices="tripinfo_EW_160" vType="car" speedFactor="1.04" vaporized=""/>
    <tripinfo id="WE_137" depart="137.00" departLane="1i_0" departPos="4.10" departSpeed="0.00" departDelay="0.00" arrival="248.00" arrivalLane="4o_0" arrivalPos="492.80" arrivalSpeed="8.94" duration="111.00" routeLength="995.70" waitingTime="5.00" waitingCount="2" stopTime="0.00" timeLoss="31.87" rerouteNo="0" devices="tripinfo_WE_137" vType="car" speedFactor="0.90" vaporized=""/>
    <tripinfo id="NS_159" depart="159.00" departLane="2i_0" departPos="4.10" departSpeed="0.00" departDelay="0.00" arrival="252.00" arrivalLane="4o_0" arrivalPos="492.80" arrivalSpeed="10.13" duration="93.00" routeLength="990.53" waitingTime="1.00" waitingCount="1" stopTime="0.00" timeLoss="16.00" rerouteNo="0" devices="tripinfo_NS_159" vType="car" speedFactor="0.91" vaporized=""/>
    <tripinfo id="SN_120" depart="126.00" departLane="3i_0" departPos="4.10" departSpeed="0.00" departDelay="6.00" arrival="253.00" arrivalLane="1o_0" arrivalPos="492.80" arrivalSpeed="9.06" duration="127.00" routeLength="995.70" waitingTime="25.00" waitingCount="2" stopTime="0.00" timeLoss="45.79" rerouteNo="0" devices="tripinfo_SN_120" vType="car" speedFactor="0.88" vaporized=""/>
    <tripinfo id="WE_145" depart="146.00" departLane="1i_0" departPos="4.10" departSpeed="0.00" departDelay="1.00" arrival="254.00" arrivalLane="4o_0" arrivalPos="492.80" arrivalSpeed="11.30" duration="108.00" routeLength="995.70" waitingTime="5.00" waitingCount="3" stopTime="0.00" timeLoss="44.32" rerouteNo="0" devices="tripinfo_WE_145" vType="car" speedFactor="1.12" vaporized=""/>
    <tripinfo id="SN_121" depart="129.00" departLane="3i_0" departPos="4.10" departSpeed="0.00" departDelay="8.00" arrival="256.00" arrivalLane="2o_0" arrivalPos="492.80" arrivalSpeed="9.24" duration="127.00" routeLength="990.53" waitingTime="24.00" waitingCount="2" stopTime="0.00" timeLoss="43.93" rerouteNo="0" devices="tripinfo_SN_121" vType="car" speedFactor="0.85" vaporized=""/>
    <tripinfo id="SN_134" depart="136.00" departLane="3i_0" departPos="4.10" departSpeed="0.00" departDelay="2.00" arrival="256.00" arrivalLane="4o_0" arrivalPos="492.80" arrivalSpeed="10.09" duration="120.00" routeLength="995.90" waitingTime="21.00" waitingCount="2" stopTime="0.00" timeLoss="48.42" rerouteNo="0" devices="tripinfo_SN_134" vType="car" speedFactor="1.00" vaporized=""/>
    <tripinfo id="NS_178" depart="178.00" departLane="2i_0" departPos="4.10" departSpeed="0.00" departDelay="0.00" arrival="257.00" arrivalLane="4o_0" arrivalPos="492.80" arrivalSpeed="11.71" duration="79.00" routeLength="990.53" waitingTime="0.00" waitingCount="0" stopTime="0.00" timeLoss="12.24" rerouteNo="0" devices="tripinfo_NS_178" vType="car" speedFactor="1.06" vaporized=""/>
    <tripinfo id="SN_142" depart="142.00" departLane="3i_0" departPos="4.10" departSpeed="0.00" departDelay="0.00" arrival="258.00" arrivalLane="2o_0" arrivalPos="492.80" arrivalSpeed="10.64" duration="116.00" routeLength="990.53" waitingTime="16.00" waitingCount="2" stopTime="0.00" timeLoss="42.82" rerouteNo="0" devices="tripinfo_SN_142" vType="car" speedFactor="0.97" vaporized=""/>
    <tripinfo id="SN_146" depart="146.00" departLane="3i_0" departPos="10.10" departSpeed="0.00" departDelay="0.00" arrival="260.00" arrivalLane="2o_0" arrivalPos="492.80" arrivalSpeed="10.66" duration="114.00" routeLength="984.53" waitingTime="11.00" waitingCount="1" stopTime="0.00" timeLoss="41.61" rerouteNo="0" devices="tripinfo_SN_146" vType="truck" speedFactor="0.97" vaporized=""/>
    <tripinfo id="EW_176" depart="176.00" departLane="4i_0" departPos="4.10" departSpeed="0.00" departDelay="0.00" arrival="260.00" arrivalLane="3o_0" arrivalPos="492.80" arrivalSpeed="9.67" duration="84.00" routeLength="995.90" waitingTime="0.00" waitingCount="0" stopTime="0.00" timeLoss="8.46" rerouteNo="0" devices="tripinfo_EW_176" vType="car" speedFactor="0.94" vaporized=""/>
    <tripinfo id="SN_154" depart="154.00" departLane="3i_0" departPos="10.10" departSpeed="0.00" departDelay="0.00" arrival="263.00" arrivalLane="2o_0" arrivalPos="492.80" arrivalSpeed="9.88" duration="109.00" routeLength="984.53" waitingTime="7.00" waitingCount="1" stopTime="0.00" timeLoss="33.85" rerouteNo="0" devices="tripinfo_SN_154" vType="truck" speedFactor="0.94" vaporized=""/>
    <tripinfo id="NS_182" depart="182.00" departLane="2i_0" departPos="4.10" departSpeed="0.00" departDelay="0.00" arrival="263.00" arrivalLane="4o_0" arrivalPos="492.80" arrivalSpeed="9.70" duration="81.00" routeLength="990.53" waitingTime="0.00" waitingCount="0" stopTime="0.00" timeLoss="9.23" rerouteNo="0" devices="tripinfo_NS_182" vType="car" speedFactor="0.98" vaporized=""/>
    <tripinfo id="WE_146" depart="149.00" departLane="1i_0" departPos="4.10" departSpeed="0.00" departDelay="3.00" arrival="265.00" arrivalLane="2o_0" arrivalPos="492.80" arrivalSpeed="9.88" duration="116.00" routeLength="995.90" waitingTime="10.00" waitingCount="3" stopTime="0.00" timeLoss="44.41" rerouteNo="0" devices="tripinfo_WE_146" vType="car" speedFactor="0.99" vaporized=""/>
    <tripinfo id="WE_164" depart="166.00" departLane="1i_0" departPos="4.10" departSpeed="0.00" departDelay="2.00" arrival="270.00" arrivalLane="2o_0" arrivalPos="492.80" arrivalSpeed="10.97" duration="104.00" routeLength="995.90" waitingTime="9.00" waitingCount="1" stopTime="0.00" timeLoss="34.57" rerouteNo="0" devices="tripinfo_WE_164" vType="car" speedFactor="1.02" vaporized=""/>
    <tripinfo id="SN_155" depart="158.00" departLane="3i_0" departPos="4.10" departSpeed="0.00" departDelay="3.00" arrival="273.00" arrivalLane="1o_0" arrivalPos="492.80" arrivalSpeed="9.32" duration="115.00" routeLength="995.70" waitingTime="7.00" waitingCount="2" stopTime="0.00" timeLoss="36.56" rerouteNo="0" devices="tripinfo_SN_155" vType="car" speedFactor="0.91" vaporized=""/>
    <tripinfo id="SN_164" depart="164.00" departLane="3i_0" departPos="4.10" departSpeed="0.00" departDelay="0.00" arrival="274.00" arrivalLane="4o_0" arrivalPos="492.80" arrivalSpeed="10.44" duration="110.00" routeLength="995.90" waitingTime="8.00" waitingCount="2" stopTime="0.00" timeLoss="40.72" rerouteNo="0" devices="tripinfo_SN_164" vType="car" speedFactor="1.02" vaporized=""/>
    <tripinfo id="SN_179" depart="179.00" departLane="3i_0" departPos="4.10" departSpeed="0.00" departDelay="0.00" arrival="279.00" arrivalLane="1o_0" arrivalPos="492.80" arrivalSpeed="9.86" duration="100.00" routeLength="995.70" waitingTime="2.00" waitingCount="1" stopTime="0.00" timeLoss="26.11" rerouteNo="0" devices="tripinfo_SN_179" vType="car" speedFactor="0.96" vaporized=""/>
    <tripinfo id="WE_170" depart="170.00" departLane="1i_0" departPos="4.10" departSpeed="0.00" departDelay="0.00" arrival="282.00" arrivalLane="2o_0" arrivalPos="492.80" arrivalSpeed="9.84" duration="112.00" routeLength="995.90" waitingTime="14.00" waitingCount="2" stopTime="0.00" timeLoss="38.77" rerouteNo="0" devices="tripinfo_WE_170" vType="car" speedFactor="0.97" vaporized=""/>