<?xml version="1.0" encoding="UTF-8"?>

<!-- generated on 2024-05-04 19:48:32 by Eclipse SUMO sumo Version 1.19.0
<configuration xmlns:xsi="http://www.w3.org/2001/XMLSchema-instance" xsi:noNamespaceSchemaLocation="http://sumo.dlr.de/xsd/sumoConfiguration.xsd">

    <input>
        <net-file value="test5.net.xml"/>
        <route-files value="route_gen.rou.xml"/>
    </input>

    <output>
        <tripinfo-output value="tripinfo_epi657.xml"/>
    </output>

    <report>
        <no-warnings value="true"/>
    </report>

    <traci_server>
        <remote-port value="32845"/>
    </traci_server>

</configuration>
-->

<tripinfos xmlns:xsi="http://www.w3.org/2001/XMLSchema-instance" xsi:noNamespaceSchemaLocation="http://sumo.dlr.de/xsd/tripinfo_file.xsd">
    <tripinfo id="WE_1" depart="1.00" departLane="1i_0" departPos="4.10" departSpeed="0.00" departDelay="0.00" arrival="75.00" arrivalLane="3o_0" arrivalPos="492.80" arrivalSpeed="11.04" duration="74.00" routeLength="990.53" waitingTime="0.00" waitingCount="0" stopTime="0.00" timeLoss="7.09" rerouteNo="0" devices="tripinfo_WE_1" vType="car" speedFactor="1.06" vaporized=""/>
    <tripinfo id="EW_7" depart="7.00" departLane="4i_0" departPos="4.10" departSpeed="0.00" departDelay="0.00" arrival="88.00" arrivalLane="2o_0" arrivalPos="492.80" arrivalSpeed="11.04" duration="81.00" routeLength="995.70" waitingTime="0.00" waitingCount="0" stopTime="0.00" timeLoss="11.09" rerouteNo="0" devices="tripinfo_EW_7" vType="car" speedFactor="1.01" vaporized=""/>
    <tripinfo id="WE_10" depart="10.00" departLane="1i_0" departPos="4.10" departSpeed="0.00" departDelay="0.00" arrival="92.00" arrivalLane="3o_0" arrivalPos="492.80" arrivalSpeed="10.89" duration="82.00" routeLength="990.53" waitingTime="4.00" waitingCount="1" stopTime="0.00" timeLoss="13.43" rerouteNo="0" devices="tripinfo_WE_10" vType="car" speedFactor="1.03" vaporized=""/>
    <tripinfo id="SN_7" depart="7.00" departLane="3i_0" departPos="4.10" departSpeed="0.00" departDelay="0.00" arrival="93.00" arrivalLane="2o_0" arrivalPos="492.80" arrivalSpeed="11.48" duration="86.00" routeLength="990.53" waitingTime="2.00" waitingCount="1" stopTime="0.00" timeLoss="20.36" rerouteNo="0" devices="tripinfo_SN_7" vType="car" speedFactor="1.08" vaporized=""/>
    <tripinfo id="WE_15" depart="15.00" departLane="1i_0" departPos="4.10" departSpeed="0.00" departDelay="0.00" arrival="94.00" arrivalLane="3o_0" arrivalPos="492.80" arrivalSpeed="11.24" duration="79.00" routeLength="990.53" waitingTime="0.00" waitingCount="0" stopTime="0.00" timeLoss="11.66" rerouteNo="0" devices="tripinfo_WE_15" vType="car" speedFactor="1.05" vaporized=""/>
    <tripinfo id="SN_3" depart="3.00" departLane="3i_0" departPos="4.10" departSpeed="0.00" departDelay="0.00" arrival="96.00" arrivalLane="1o_0" arrivalPos="492.80" arrivalSpeed="10.38" duration="93.00" routeLength="995.70" waitingTime="1.00" waitingCount="1" stopTime="0.00" timeLoss="17.34" rerouteNo="0" devices="tripinfo_SN_3" vType="car" speedFactor="0.94" vaporized=""/>
    <tripinfo id="NS_17" depart="17.00" departLane="2i_0" departPos="4.10" departSpeed="0.00" departDelay="0.00" arrival="107.00" arrivalLane="3o_0" arrivalPos="492.80" arrivalSpeed="8.66" duration="90.00" routeLength="995.70" waitingTime="0.00" waitingCount="0" stopTime="0.00" timeLoss="10.25" rerouteNo="0" devices="tripinfo_NS_17" vType="car" speedFactor="0.89" vaporized=""/>
    <tripinfo id="SN_10" depart="10.00" departLane="3i_0" departPos="4.10" departSpeed="0.00" departDelay="0.00" arrival="108.00" arrivalLane="2o_0" arrivalPos="492.80" arrivalSpeed="8.17" duration="98.00" routeLength="990.53" waitingTime="0.00" waitingCount="0" stopTime="0.00" timeLoss="13.29" rerouteNo="0" devices="tripinfo_SN_10" vType="car" speedFactor="0.83" vaporized=""/>
    <tripinfo id="NS_19" depart="20.00" departLane="2i_0" departPos="4.10" departSpeed="0.00" departDelay="1.00" arrival="109.00" arrivalLane="3o_0" arrivalPos="492.80" arrivalSpeed="9.98" duration="89.00" routeLength="995.70" waitingTime="0.00" waitingCount="0" stopTime="0.00" timeLoss="13.38" rerouteNo="0" devices="tripinfo_NS_19" vType="car" speedFactor="0.94" vaporized=""/>
    <tripinfo id="SN_40" depart="40.00" departLane="3i_0" departPos="4.10" departSpeed="0.00" departDelay="0.00" arrival="111.00" arrivalLane="2o_0" arrivalPos="492.80" arrivalSpeed="11.49" duration="71.00" routeLength="990.53" waitingTime="0.00" waitingCount="0" stopTime="0.00" timeLoss="8.10" rerouteNo="0" devices="tripinfo_SN_40" vType="car" speedFactor="1.12" vaporized=""/>
    <tripinfo id="SN_19" depart="19.00" departLane="3i_0" departPos="10.10" departSpeed="0.00" departDelay="0.00" arrival="113.00" arrivalLane="1o_0" arrivalPos="492.80" arrivalSpeed="9.84" duration="94.00" routeLength="989.70" waitingTime="0.00" waitingCount="0" stopTime="0.00" timeLoss="17.60" rerouteNo="0" devices="tripinfo_SN_19" vType="truck" speedFactor="0.93" vaporized=""/>
    <tripinfo id="NS_31" depart="31.00" departLane="2i_0" departPos="4.10" departSpeed="0.00" departDelay="0.00" arrival="115.00" arrivalLane="1o_0" arrivalPos="492.80" arrivalSpeed="11.41" duration="84.00" routeLength="995.90" waitingTime="1.00" waitingCount="1" stopTime="0.00" timeLoss="18.72" rerouteNo="0" devices="tripinfo_NS_31" vType="car" speedFactor="1.09" vaporized=""/>
    <tripinfo id="EW_34" depart="34.00" departLane="4i_0" departPos="10.10" departSpeed="0.00" departDelay="0.00" arrival="120.00" arrivalLane="3o_0" arrivalPos="492.80" arrivalSpeed="10.84" duration="86.00" routeLength="989.90" waitingTime="0.00" waitingCount="0" stopTime="0.00" timeLoss="15.92" rerouteNo="0" devices="tripinfo_EW_34" vType="truck" speedFactor="1.01" vaporized=""/>
    <tripinfo id="EW_40" depart="40.00" departLane="4i_0" departPos="4.10" departSpeed="0.00" departDelay="0.00" arrival="123.00" arrivalLane="3o_0" arrivalPos="492.80" arrivalSpeed="10.49" duration="83.00" routeLength="995.90" waitingTime="0.00" waitingCount="0" stopTime="0.00" timeLoss="15.54" rerouteNo="0" devices="tripinfo_EW_40" vType="car" speedFactor="1.05" vaporized=""/>
    <tripinfo id="NS_51" depart="51.00" departLane="2i_0" departPos="4.10" departSpeed="0.00" departDelay="0.00" arrival="132.00" arrivalLane="3o_0" arrivalPos="492.80" arrivalSpeed="9.72" duration="81.00" routeLength="995.70" waitingTime="0.00" waitingCount="0" stopTime="0.00" timeLoss="9.84" rerouteNo="0" devices="tripinfo_NS_51" vType="car" speedFactor="0.99" vaporized=""/>
    <tripinfo id="NS_60" depart="60.00" departLane="2i_0" departPos="4.10" departSpeed="0.00" departDelay="0.00" arrival="143.00" arrivalLane="1o_0" arrivalPos="492.80" arrivalSpeed="9.73" duration="83.00" routeLength="995.90" waitingTime="0.00" waitingCount="0" stopTime="0.00" timeLoss="7.41" rerouteNo="0" devices="tripinfo_NS_60" vType="car" speedFactor="0.94" vaporized=""/>
    <tripinfo id="WE_64" depart="64.00" departLane="1i_0" departPos="4.10" departSpeed="0.00" departDelay="0.00" arrival="151.00" arrivalLane="4o_0" arrivalPos="492.80" arrivalSpeed="10.65" duration="87.00" routeLength="995.70" waitingTime="2.00" waitingCount="1" stopTime="0.00" timeLoss="17.46" rerouteNo="0" devices="tripinfo_WE_64" vType="car" speedFactor="1.02" vaporized=""/>
    <tripinfo id="SN_55" depart="55.00" departLane="3i_0" departPos="4.10" departSpeed="0.00" departDelay="0.00" arrival="152.00" arrivalLane="1o_0" arrivalPos="492.80" arrivalSpeed="10.05" duration="97.00" routeLength="995.70" waitingTime="6.00" waitingCount="2" stopTime="0.00" timeLoss="20.50" rerouteNo="0" devices="tripinfo_SN_55" vType="car" speedFactor="0.93" vaporized=""/>
    <tripinfo id="EW_59" depart="59.00" departLane="4i_0" departPos="4.10" departSpeed="0.00" departDelay="0.00" arrival="153.00" arrivalLane="2o_0" arrivalPos="492.80" arrivalSpeed="9.22" duration="94.00" routeLength="995.70" waitingTime="0.00" waitingCount="0" stopTime="0.00" timeLoss="13.60" rerouteNo="0" devices="tripinfo_EW_59" vType="car" speedFactor="0.88" vaporized=""/>
    <tripinfo id="EW_69" depart="69.00" departLane="4i_0" departPos="4.10" departSpeed="0.00" departDelay="0.00" arrival="154.00" arrivalLane="1o_0" arrivalPos="492.80" arrivalSpeed="9.89" duration="85.00" routeLength="990.53" waitingTime="0.00" waitingCount="0" stopTime="0.00" timeLoss="12.42" rerouteNo="0" devices="tripinfo_EW_69" vType="car" speedFactor="0.97" vaporized=""/>
    <tripinfo id="WE_97" depart="97.00" departLane="1i_0" departPos="4.10" departSpeed="0.00" departDelay="0.00" arrival="168.00" arrivalLane="2o_0" arrivalPos="492.80" arrivalSpeed="11.81" duration="71.00" routeLength="995.90" waitingTime="0.00" waitingCount="0" stopTime="0.00" timeLoss="8.26" rerouteNo="0" devices="tripinfo_WE_97" vType="car" speedFactor="1.13" vaporized=""/>
    <tripinfo id="NS_78" depart="78.00" departLane="2i_0" departPos="4.10" departSpeed="0.00" departDelay="0.00" arrival="172.00" arrivalLane="1o_0" arrivalPos="492.80" arrivalSpeed="9.14" duration="94.00" routeLength="995.90" waitingTime="0.00" waitingCount="0" stopTime="0.00" timeLoss="8.23" rerouteNo="0" devices="tripinfo_NS_78" vType="car" speedFactor="0.83" vaporized=""/>
    <tripinfo id="SN_61" depart="61.00" departLane="3i_0" departPos="4.10" departSpeed="0.00" departDelay="0.00" arrival="173.00" arrivalLane="4o_0" arrivalPos="492.80" arrivalSpeed="10.00" duration="112.00" routeLength="995.90" waitingTime="17.00" waitingCount="2" stopTime="0.00" timeLoss="36.30" rerouteNo="0" devices="tripinfo_SN_61" vType="car" speedFactor="0.94" vaporized=""/>
    <tripinfo id="EW_76" depart="76.00" departLane="4i_0" departPos="4.10" departSpeed="0.00" departDelay="0.00" arrival="176.00" arrivalLane="3o_0" arrivalPos="492.80" arrivalSpeed="9.06" duration="100.00" routeLength="995.90" waitingTime="8.00" waitingCount="1" stopTime="0.00" timeLoss="20.64" rerouteNo="0" devices="tripinfo_EW_76" vType="car" speedFactor="0.89" vaporized=""/>
    <tripinfo id="EW_104" depart="104.00" departLane="4i_0" departPos="4.10" departSpeed="0.00" departDelay="0.00" arrival="179.00" arrivalLane="2o_0" arrivalPos="492.80" arrivalSpeed="12.59" duration="75.00" routeLength="995.70" waitingTime="0.00" waitingCount="0" stopTime="0.00" timeLoss="12.94" rerouteNo="0" devices="tripinfo_EW_104" vType="car" speedFactor="1.15" vaporized=""/>
    <tripinfo id="SN_63" depart="64.00" departLane="3i_0" departPos="4.10" departSpeed="0.00" departDelay="1.00" arrival="181.00" arrivalLane="1o_0" arrivalPos="492.80" arrivalSpeed="11.79" duration="117.00" routeLength="995.70" waitingTime="26.00" waitingCount="3" stopTime="0.00" timeLoss="55.23" rerouteNo="0" devices="tripinfo_SN_63" vType="car" speedFactor="1.16" vaporized=""/>
    <tripinfo id="NS_81" depart="82.00" departLane="2i_0" departPos="10.10" departSpeed="0.00" departDelay="1.00" arrival="184.00" arrivalLane="3o_0" arrivalPos="492.80" arrivalSpeed="9.84" duration="102.00" routeLength="989.70" waitingTime="6.00" waitingCount="1" stopTime="0.00" timeLoss="26.25" rerouteNo="0" devices="tripinfo_NS_81" vType="truck" speedFactor="0.94" vaporized=""/>
    <tripinfo id="WE_99" depart="100.00" departLane="1i_0" departPos="4.10" departSpeed="0.00" departDelay="1.00" arrival="186.00" arrivalLane="4o_0" arrivalPos="492.80" arrivalSpeed="10.29" duration="86.00" routeLength="995.70" waitingTime="0.00" waitingCount="0" stopTime="0.00" timeLoss="9.50" rerouteNo="0" devices="tripinfo_WE_99" vType="car" speedFactor="0.93" vaporized=""/>
    <tripinfo id="WE_109" depart="109.00" departLane="1i_0" departPos="4.10" departSpeed="0.00" departDelay="0.00" arrival="186.00" arrivalLane="3o_0" arrivalPos="492.80" arrivalSpeed="12.99" duration="77.00" routeLength="990.53" waitingTime="0.00" waitingCount="0" stopTime="0.00" timeLoss="16.34" rerouteNo="0" devices="tripinfo_WE_109" vType="car" speedFactor="1.17" vaporized=""/>
    <tripinfo id="EW_107" depart="107.00" departLane="4i_0" departPos="4.10" departSpeed="0.00" departDelay="0.00" arrival="188.00" arrivalLane="2o_0" arrivalPos="492.80" arrivalSpeed="11.01" duration="81.00" routeLength="995.70" waitingTime="0.00" waitingCount="0" stopTime="0.00" timeLoss="10.15" rerouteNo="0" devices="tripinfo_EW_107" vType="car" speedFactor="1.01" vaporized=""/>
    <tripinfo id="NS_96" depart="96.00" departLane="2i_0" departPos="4.10" departSpeed="0.00" departDelay="0.00" arrival="194.00" arrivalLane="1o_0" arrivalPos="492.80" arrivalSpeed="10.36" duration="98.00" routeLength="995.90" waitingTime="3.00" waitingCount="1" stopTime="0.00" timeLoss="23.47" rerouteNo="0" devices="tripinfo_NS_96" vType="car" speedFactor="0.95" vaporized=""/>
    <tripinfo id="NS_110" depart="111.00" departLane="2i_0" departPos="4.10" departSpeed="0.00" departDelay="1.00" arrival="194.00" arrivalLane="3o_0" arrivalPos="492.80" arrivalSpeed="10.70" duration="83.00" routeLength="995.70" waitingTime="0.00" waitingCount="0" stopTime="0.00" timeLoss="11.34" rerouteNo="0" devices="tripinfo_NS_110" vType="car" speedFactor="0.99" vaporized=""/>
    <tripinfo id="EW_121" depart="121.00" departLane="4i_0" departPos="4.10" departSpeed="0.00" departDelay="0.00" arrival="196.00" arrivalLane="1o_0" arrivalPos="492.80" arrivalSpeed="12.17" duration="75.00" routeLength="990.53" waitingTime="0.00" waitingCount="0" stopTime="0.00" timeLoss="10.77" rerouteNo="0" devices="tripinfo_EW_121" vType="car" speedFactor="1.10" vaporized=""/>
    <tripinfo id="SN_65" depart="66.00" departLane="3i_0" departPos="4.10" departSpeed="0.00" departDelay="1.00" arrival="198.00" arrivalLane="4o_0" arrivalPos="492.80" arrivalSpeed="10.58" duration="132.00" routeLength="995.90" waitingTime="30.00" waitingCount="5" stopTime="0.00" timeLoss="61.76" rerouteNo="0" devices="tripinfo_SN_65" vType="car" speedFactor="1.01" vaporized=""/>
    <tripinfo id="EW_111" depart="111.00" departLane="4i_0" departPos="4.10" departSpeed="0.00" departDelay="0.00" arrival="198.00" arrivalLane="3o_0" arrivalPos="492.80" arrivalSpeed="10.20" duration="87.00" routeLength="995.90" waitingTime="4.00" waitingCount="1" stopTime="0.00" timeLoss="17.13" rerouteNo="0" devices="tripinfo_EW_111" vType="car" speedFactor="1.02" vaporized=""/>
    <tripinfo id="SN_102" depart="102.00" departLane="3i_0" departPos="4.10" departSpeed="0.00" departDelay="0.00" arrival="200.00" arrivalLane="2o_0" arrivalPos="492.80" arrivalSpeed="11.85" duration="98.00" routeLength="990.53" waitingTime="5.00" waitingCount="2" stopTime="0.00" timeLoss="38.05" rerouteNo="0" devices="tripinfo_SN_102" vType="car" speedFactor="1.18" vaporized=""/>
    <tripinfo id="SN_83" depart="83.00" departLane="3i_0" departPos="10.10" departSpeed="0.00" departDelay="0.00" arrival="205.00" arrivalLane="1o_0" arrivalPos="492.80" arrivalSpeed="10.50" duration="122.00" routeLength="989.70" waitingTime="12.00" waitingCount="3" stopTime="0.00" timeLoss="47.78" rerouteNo="0" devices="tripinfo_SN_83" vType="truck" speedFactor="0.96" vaporized=""/>
    <tripinfo id="EW_125" depart="125.00" departLane="4i_0" departPos="4.10" departSpeed="0.00" departDelay="0.00" arrival="209.00" arrivalLane="3o_0" arrivalPos="492.80" arrivalSpeed="10.33" duration="84.00" routeLength="995.90" waitingTime="0.00" waitingCount="0" stopTime="0.00" timeLoss="9.39" rerouteNo="0" devices="tripinfo_EW_125" vType="car" speedFactor="0.96" vaporized=""/>
    <tripinfo id="NS_123" depart="123.00" departLane="2i_0" departPos="4.10" departSpeed="0.00" departDelay="0.00" arrival="210.00" arrivalLane="4o_0" arrivalPos="492.80" arrivalSpeed="9.94" duration="87.00" routeLength="990.53" waitingTime="0.00" waitingCount="0" stopTime="0.00" timeLoss="8.49" rerouteNo="0" devices="tripinfo_NS_123" vType="car" speedFactor="0.90" vaporized=""/>
    <tripinfo id="NS_126" depart="126.00" departLane="2i_0" departPos="4.10" departSpeed="0.00" departDelay="0.00" arrival="210.00" arrivalLane="3o_0" arrivalPos="492.80" arrivalSpeed="11.89" duration="84.00" routeLength="995.70" waitingTime="0.00" waitingCount="0" stopTime="0.00" timeLoss="19.43" rerouteNo="0" devices="tripinfo_NS_126" vType="car" speedFactor="1.09" vaporized=""/>
    <tripinfo id="EW_130" depart="130.00" departLane="4i_0" departPos="4.10" departSpeed="0.00" departDelay="0.00" arrival="212.00" arrivalLane="3o_0" arrivalPos="492.80" arrivalSpeed="11.07" duration="82.00" routeLength="995.90" waitingTime="0.00" waitingCount="0" stopTime="0.00" timeLoss="13.86" rerouteNo="0" devices="tripinfo_EW_130" vType="car" speedFactor="1.04" vaporized=""/>
    <tripinfo id="WE_135" depart="135.00" departLane="1i_0" departPos="4.10" departSpeed="0.00" departDelay="0.00" arrival="214.00" arrivalLane="3o_0" arrivalPos="492.80" arrivalSpeed="11.97" duration="79.00" routeLength="990.53" waitingTime="0.00" waitingCount="0" stopTime="0.00" timeLoss="13.98" rerouteNo="0" devices="tripinfo_WE_135" vType="car" speedFactor="1.09" vaporized=""/>
    <tripinfo id="SN_114" depart="114.00" departLane="3i_0" departPos="4.10" departSpeed="0.00" departDelay="0.00" arrival="217.00" arrivalLane="1o_0" arrivalPos="492.80" arrivalSpeed="10.03" duration="103.00" routeLength="995.70" waitingTime="5.00" waitingCount="2" stopTime="0.00" timeLoss="30.21" rerouteNo="0" devices="tripinfo_SN_114" vType="car" speedFactor="0.97" vaporized=""/>
    <tripinfo id="EW_133" depart="133.00" departLane="4i_0" departPos="10.10" departSpeed="0.00" departDelay="0.00" arrival="218.00" arrivalLane="2o_0" arrivalPos="492.80" arrivalSpeed="11.27" duration="85.00" routeLength="989.70" waitingTime="0.00" waitingCount="0" stopTime="0.00" timeLoss="15.90" rerouteNo="0" devices="tripinfo_EW_133" vType="truck" speedFactor="1.02" vaporized=""/>
    <tripinfo id="SN_116" depart="120.00" departLane="3i_0" departPos="4.10" departSpeed="0.00" departDelay="4.00" arrival="219.00" arrivalLane="1o_0" arrivalPos="492.80" arrivalSpeed="13.11" duration="99.00" routeLength="995.70" waitingTime="3.00" waitingCount="2" stopTime="0.00" timeLoss="38.41" rerouteNo="0" devices="tripinfo_SN_116" vType="car" speedFactor="1.18" vaporized=""/>
    <tripinfo id="WE_138" depart="138.00" departLane="1i_0" departPos="4.10" departSpeed="0.00" departDelay="0.00" arrival="226.00" arrivalLane="3o_0" arrivalPos="492.80" arrivalSpeed="9.24" duration="88.00" routeLength="990.53" waitingTime="0.00" waitingCount="0" stopTime="0.00" timeLoss="9.46" rerouteNo="0" devices="tripinfo_WE_138" vType="car" speedFactor="0.90" vaporized=""/>
    <tripinfo id="NS_137" depart="137.00" departLane="2i_0" departPos="4.10" departSpeed="0.00" departDelay="0.00" arrival="228.00" arrivalLane="3o_0" arrivalPos="492.80" arrivalSpeed="9.82" duration="91.00" routeLength="995.70" waitingTime="2.00" waitingCount="2" stopTime="0.00" timeLoss="19.71" rerouteNo="0" devices="tripinfo_NS_137" vType="car" speedFactor="1.00" vaporized=""/>
    <tripinfo id="EW_145" depart="145.00" departLane="4i_0" departPos="4.10" departSpeed="0.00" departDelay="0.00" arrival="237.00" arrivalLane="1o_0" arrivalPos="492.80" arrivalSpeed="9.07" duration="92.00" routeLength="990.53" waitingTime="0.00" waitingCount="0" stopTime="0.00" timeLoss="9.39" rerouteNo="0" devices="tripinfo_EW_145" vType="car" speedFactor="0.85" vaporized=""/>
    <tripinfo id="SN_123" depart="123.00" departLane="3i_0" departPos="4.10" departSpeed="0.00" departDelay="0.00" arrival="239.00" arrivalLane="1o_0" arrivalPos="492.80" arrivalSpeed="11.42" duration="116.00" routeLength="995.70" waitingTime="5.00" waitingCount="2" stopTime="0.00" timeLoss="46.88" rerouteNo="0" devices="tripinfo_SN_123" vType="car" speedFactor="1.03" vaporized=""/>
    <tripinfo id="NS_143" depart="143.00" departLane="2i_0" departPos="4.10" departSpeed="0.00" departDelay="0.00" arrival="239.00" arrivalLane="4o_0" arrivalPos="492.80" arrivalSpeed="9.20" duration="96.00" routeLength="990.53" waitingTime="0.00" waitingCount="0" stopTime="0.00" timeLoss="13.32" rerouteNo="0" devices="tripinfo_NS_143" vType="car" speedFactor="0.85" vaporized=""/>
    <tripinfo id="NS_149" depart="149.00" departLane="2i_0" departPos="4.10" departSpeed="0.00" departDelay="0.00" arrival="241.00" arrivalLane="4o_0" arrivalPos="492.80" arrivalSpeed="12.41" duration="92.00" routeLength="990.53" waitingTime="0.00" waitingCount="0" stopTime="0.00" timeLoss="31.36" rerouteNo="0" devices="tripinfo_NS_149" vType="car" speedFactor="1.17" vaporized=""/>
    <tripinfo id="WE_155" depart="155.00" departLane="1i_0" departPos="4.10" departSpeed="0.00" departDelay="0.00" arrival="241.00" arrivalLane="2o_0" arrivalPos="492.80" arrivalSpeed="10.69" duration="86.00" routeLength="995.90" waitingTime="0.00" waitingCount="0" stopTime="0.00" timeLoss="15.74" rerouteNo="0" devices="tripinfo_WE_155" vType="car" speedFactor="1.02" vaporized=""/>
    <tripinfo id="EW_156" depart="156.00" departLane="4i_0" departPos="4.10" departSpeed="0.00" departDelay="0.00" arrival="241.00" arrivalLane="1o_0" arrivalPos="492.80" arrivalSpeed="11.02" duration="85.00" routeLength="990.53" waitingTime="0.00" waitingCount="0" stopTime="0.00" timeLoss="20.03" rerouteNo="0" devices="tripinfo_EW_156" vType="car" speedFactor="1.10" vaporized=""/>
    <tripinfo id="WE_141" depart="141.00" departLane="1i_0" departPos="10.10" departSpeed="0.00" departDelay="0.00" arrival="244.00" arrivalLane="4o_0" arrivalPos="492.80" arrivalSpeed="10.38" duration="103.00" routeLength="989.70" waitingTime="2.00" waitingCount="1" stopTime="0.00" timeLoss="27.31" rerouteNo="0" devices="tripinfo_WE_141" vType="truck" speedFactor="0.94" vaporized=""/>
    <tripinfo id="WE_158" depart="158.00" departLane="1i_0" departPos="4.10" departSpeed="0.00" departDelay="0.00" arrival="246.00" arrivalLane="4o_0" arrivalPos="492.80" arrivalSpeed="11.05" duration="88.00" routeLength="995.70" waitingTime="0.00" waitingCount="0" stopTime="0.00" timeLoss="17.19" rerouteNo="0" devices="tripinfo_WE_158" vType="car" speedFactor="1.00" vaporized=""/>
    <tripinfo id="EW_163" depart="163.00" departLane="4i_0" departPos="4.10" departSpeed="0.00" departDelay="0.00" arrival="248.00" arrivalLane="2o_0" arrivalPos="492.80" arrivalSpeed="10.57" duration="85.00" routeLength="995.70" waitingTime="1.00" waitingCount="1" stopTime="0.00" timeLoss="13.32" rerouteNo="0" devices="tripinfo_EW_163" vType="car" speedFactor="1.00" vaporized=""/>
    <tripinfo id="SN_176" depart="176.00" departLane="3i_0" departPos="4.10" departSpeed="0.00" departDelay="0.00" arrival="252.00" arrivalLane="4o_0" arrivalPos="492.80" arrivalSpeed="11.79" duration="76.00" routeLength="995.90" waitingTime="0.00" waitingCount="0" stopTime="0.00" timeLoss="10.12" rerouteNo="0" devices="tripinfo_SN_176" vType="car" speedFactor="1.08" vaporized=""/>
    <tripinfo id="EW_177" depart="177.00" departLane="4i_0" departPos="4.10" departSpeed="0.00" departDelay="0.00" arrival="252.00" arrivalLane="3o_0" arrivalPos="492.80" arrivalSpeed="11.27" duration="75.00" routeLength="995.90" waitingTime="1.00" waitingCount="1" stopTime="0.00" timeLoss="11.90" rerouteNo="0" devices="tripinfo_EW_177" vType="car" speedFactor="1.12" vaporized=""/>
    <tripinfo id="SN_173" depart="173.00" departLane="3i_0" departPos="4.10" departSpeed="0.00" departDelay="0.00" arrival="253.00" arrivalLane="1o_0" arrivalPos="492.80" arrivalSpeed="11.07" duration="80.00" routeLength="995.70" waitingTime="0.00" waitingCount="0" stopTime="0.00" timeLoss="10.71" rerouteNo="0" devices="tripinfo_SN_173" vType="car" speedFactor="1.02" vaporized=""/>
    <tripinfo id="EW_165" depart="166.00" departLane="4i_0" departPos="4.10" departSpeed="0.00" departDelay="1.00" arrival="255.00" arrivalLane="2o_0" arrivalPos="492.80" arrivalSpeed="9.81" duration="89.00" routeLength="995.70" waitingTime="0.00" waitingCount="0" stopTime="0.00" timeLoss="10.17" rerouteNo="0" devices="tripinfo_EW_165" vType="car" speedFactor="0.90" vaporized=""/>
    <tripinfo id="EW_172" depart="173.00" departLane="4i_0" departPos="4.10" departSpeed="0.00" departDelay="1.00" arrival="257.00" arrivalLane="2o_0" arrivalPos="492.80" arrivalSpeed="12.52" duration="84.00" routeLength="995.70" waitingTime="0.00" waitingCount="0" stopTime="0.00" timeLoss="21.56" rerouteNo="0" devices="tripinfo_EW_172" vType="car" speedFactor="1.14" vaporized=""/>
    <tripinfo id="WE_176" depart="176.00" departLane="1i_0" departPos="4.10" departSpeed="0.00" departDelay="0.00" arrival="262.00" arrivalLane="4o_0" arrivalPos="492.80" arrivalSpeed="9.62" duration="86.00" routeLength="995.70" waitingTime="0.00" waitingCount="0" stopTime="0.00" timeLoss="12.87" rerouteNo="0" devices="tripinfo_WE_176" vType="car" speedFactor="0.97" vaporized=""/>
    <tripinfo id="WE_180" depart="181.00" departLane="1i_0" departPos="4.10" departSpeed="0.00" departDelay="1.00" arrival="262.00" arrivalLane="3o_0" arrivalPos="492.80" arrivalSpeed="10.94" duration="81.00" routeLength="990.53" waitingTime="0.00" waitingCount="0" stopTime="0.00" timeLoss="11.70" rerouteNo="0" devices="tripinfo_WE_180" vType="car" speedFactor="1.02" vaporized=""/>
    <tripinfo id="NS_180" depart="180.00" departLane="2i_0" departPos="4.10" departSpeed="0.00" departDelay="0.00" arrival="265.00" arrivalLane="4o_0" arrivalPos="492.80" arrivalSpeed="10.17" duration="85.00" routeLength="990.53" waitingTime="3.00" waitingCount="1" stopTime="0.00" timeLoss="13.13" rerouteNo="0" devices="tripinfo_NS_180" vType="car" speedFactor="0.99" vaporized=""/>
    <tripinfo id="WE_187" depart="187.00" departLane="1i_0" departPos="4.10" departSpeed="0.00" departDelay="0.00" arrival="274.00" arrivalLane="2o_0" arrivalPos="492.80" arrivalSpeed="10.04" duration="87.00" routeLength="995.90" waitingTime="0.00" waitingCount="0" stopTime="0.00" timeLoss="8.81" rerouteNo="0" devices="tripinfo_WE_187" vType="car" speedFactor="0.91" vaporized=""/>
    <tripinfo id="SN_181" depart="184.00" departLane="3i_0" departPos="10.10" departSpeed="0.00" departDelay="3.00" arrival="275.00" arrivalLane="4o_0" arrivalPos="492.80" arrivalSpeed="10.70" duration="91.00" routeLength="989.90" waitingTime="2.00" waitingCount="1" stopTime="0.00" timeLoss="18.26" rerouteNo="0" devices="tripinfo_SN_181" vType="truck" speedFactor="0.97" vaporized=""/>
    <tripinfo id="WE_192" depart="192.00" departLane="1i_0" departPos="4.10" departSpeed="0.00" departDelay="0.00" arrival="285.00" arrivalLane="2o_0" arrivalPos="492.80" arrivalSpeed="9.66" duration="93.00" routeLength="995.90" waitingTime="3.00" waitingCount="1" stopTime="0.00" timeLoss="15.06" rerouteNo="0" devices="tripinfo_WE_192" vType="car" speedFactor="0.91" vaporized=""/>
    <tripinfo id="SN_195" depart="195.00" departLane="3i_0" departPos="4.10" departSpeed="0.00" departDelay="0.00" arrival="286.00" arrivalLane="2o_0" arrivalPos="492.80" arrivalSpeed="10.85" duration="91.00" routeLength="990.53" waitingTime="1.00" waitingCount="1" stopTime="0.00" timeLoss="23.41" rerouteNo="0" devices="tripinfo_SN_195" vType="car" speedFactor="1.04" vaporized=""/>
    <tripinfo id="WE_202" depart="205.00" departLane="1i_0" departPos="4.10" departSpeed="0.00" departDelay="3.00" arrival="286.00" arrivalLane="3o_0" arrivalPos="492.80" arrivalSpeed="10.72" duration="81.00" routeLength="990.53" waitingTime="1.00" waitingCount="1" stopTime="0.00" timeLoss="11.30" rerouteNo="0" devices="tripinfo_WE_202" vType="car" speedFactor="1.02" vaporized=""/>
    <tripinfo id="WE_204" depart="208.00" departLane="1i_0" departPos="4.10" departSpeed="0.00" departDelay="4.00" arrival="288.00" arrivalLane="3o_0" arrivalPos="492.80" arrivalSpeed="10.41" duration="80.00" routeLength="990.53" waitingTime="0.00" waitingCount="0" stopTime="0.00" timeLoss="10.69" rerouteNo="0" devices="tripinfo_WE_204" vType="car" speedFactor="1.02" vaporized=""/>
    <tripinfo id="SN_186" depart="189.00" departLane="3i_0" departPos="10.10" departSpeed="0.00" departDelay="3.00" arrival="289.00" arrivalLane="1o_0" arrivalPos="492.80" arrivalSpeed="9.94" duration="100.00" routeLength="989.70" waitingTime="3.00" waitingCount="2" stopTime="0.00" timeLoss="24.85" rerouteNo="0" devices="tripinfo_SN_186" vType="truck" speedFactor="0.94" vaporized=""/>
    <tripinfo id="EW_204" depart="204.00" departLane="4i_0" departPos="4.10" departSpeed="0.00" departDelay="0.00" arrival="293.00" arrivalLane="1o_0" arrivalPos="492.80" arrivalSpeed="10.02" duration="89.00" routeLength="990.53" waitingTime="4.00" waitingCount="2" stopTime="0.00" timeLoss="16.27" rerouteNo="0" devices="tripinfo_EW_204" vType="car" speedFactor="0.97" vaporized=""/>
    <tripinfo id="NS_208" depart="208.00" departLane="2i_0" departPos="4.10" departSpeed="0.00" departDelay="0.00" arrival="293.00" arrivalLane="3o_0" arrivalPos="492.80" arrivalSpeed="10.36" duration="85.00" routeLength="995.70" waitingTime="0.00" waitingCount="0" stopTime="0.00" timeLoss="10.39" rerouteNo="0" devices="tripinfo_NS_208" vType="car" speedFactor="0.96" vaporized=""/>
    <tripinfo id="SN_205" depart="205.00" departLane="3i_0" departPos="4.10" departSpeed="0.00" departDelay="0.00" arrival="294.00" arrivalLane="2o_0" arrivalPos="492.80" arrivalSpeed="9.57" duration="89.00" routeLength="990.53" waitingTime="0.00" waitingCount="0" stopTime="0.00" timeLoss="14.12" rerouteNo="0" devices="tripinfo_SN_205" vType="car" speedFactor="0.94" vaporized=""/>
    <tripinfo id="WE_207" depart="211.00" departLane="1i_0" departPos="4.10" departSpeed="0.00" departDelay="4.00" arrival="295.00" arrivalLane="3o_0" arrivalPos="492.80" arrivalSpeed="11.34" duration="84.00" routeLength="990.53" waitingTime="0.00" waitingCount="0" stopTime="0.00" timeLoss="16.55" rerouteNo="0" devices="tripinfo_WE_207" vType="car" speedFactor="1.06" vaporized=""/>
    <tripinfo id="EW_209" depart="210.00" departLane="4i_0" departPos="4.10" departSpeed="0.00" departDelay="1.00" arrival="297.00" arrivalLane="3o_0" arrivalPos="492.80" arrivalSpeed="9.84" duration="87.00" routeLength="995.90" waitingTime="0.00" waitingCount="0" stopTime="0.00" timeLoss="14.55" rerouteNo="0" devices="tripinfo_EW_209" vType="car" speedFactor="0.98" vaporized=""/>