<?xml version="1.0" encoding="UTF-8"?>

<!-- generated on 2024-05-04 17:46:13 by Eclipse SUMO sumo Version 1.19.0
<configuration xmlns:xsi="http://www.w3.org/2001/XMLSchema-instance" xsi:noNamespaceSchemaLocation="http://sumo.dlr.de/xsd/sumoConfiguration.xsd">

    <input>
        <net-file value="test5.net.xml"/>
        <route-files value="route_gen.rou.xml"/>
    </input>

    <output>
        <tripinfo-output value="tripinfo_epi234.xml"/>
    </output>

    <report>
        <no-warnings value="true"/>
    </report>

    <traci_server>
        <remote-port value="45047"/>
    </traci_server>

</configuration>
-->

<tripinfos xmlns:xsi="http://www.w3.org/2001/XMLSchema-instance" xsi:noNamespaceSchemaLocation="http://sumo.dlr.de/xsd/tripinfo_file.xsd">
    <tripinfo id="WE_6" depart="6.00" departLane="1i_0" departPos="4.10" departSpeed="0.00" departDelay="0.00" arrival="80.00" arrivalLane="2o_0" arrivalPos="492.80" arrivalSpeed="11.94" duration="74.00" routeLength="995.90" waitingTime="0.00" waitingCount="0" stopTime="0.00" timeLoss="7.95" rerouteNo="0" devices="tripinfo_WE_6" vType="car" speedFactor="1.08" vaporized=""/>
    <tripinfo id="NS_2" depart="2.00" departLane="2i_0" departPos="4.10" departSpeed="0.00" departDelay="0.00" arrival="84.00" arrivalLane="3o_0" arrivalPos="492.80" arrivalSpeed="11.75" duration="82.00" routeLength="995.70" waitingTime="2.00" waitingCount="2" stopTime="0.00" timeLoss="15.31" rerouteNo="0" devices="tripinfo_NS_2" vType="car" speedFactor="1.06" vaporized=""/>
    <tripinfo id="EW_3" depart="3.00" departLane="4i_0" departPos="4.10" departSpeed="0.00" departDelay="0.00" arrival="93.00" arrivalLane="3o_0" arrivalPos="492.80" arrivalSpeed="9.40" duration="90.00" routeLength="995.90" waitingTime="1.00" waitingCount="1" stopTime="0.00" timeLoss="14.25" rerouteNo="0" devices="tripinfo_EW_3" vType="car" speedFactor="0.94" vaporized=""/>
    <tripinfo id="SN_4" depart="4.00" departLane="3i_0" departPos="4.10" departSpeed="0.00" departDelay="0.00" arrival="95.00" arrivalLane="1o_0" arrivalPos="492.80" arrivalSpeed="10.52" duration="91.00" routeLength="995.70" waitingTime="6.00" waitingCount="1" stopTime="0.00" timeLoss="21.05" rerouteNo="0" devices="tripinfo_SN_4" vType="car" speedFactor="1.01" vaporized=""/>
    <tripinfo id="NS_11" depart="11.00" departLane="2i_0" departPos="4.10" departSpeed="0.00" departDelay="0.00" arrival="97.00" arrivalLane="1o_0" arrivalPos="492.80" arrivalSpeed="11.19" duration="86.00" routeLength="995.90" waitingTime="2.00" waitingCount="2" stopTime="0.00" timeLoss="18.17" rerouteNo="0" devices="tripinfo_NS_11" vType="car" speedFactor="1.05" vaporized=""/>
    <tripinfo id="WE_16" depart="16.00" departLane="1i_0" departPos="4.10" departSpeed="0.00" departDelay="0.00" arrival="99.00" arrivalLane="3o_0" arrivalPos="492.80" arrivalSpeed="9.90" duration="83.00" routeLength="990.53" waitingTime="0.00" waitingCount="0" stopTime="0.00" timeLoss="7.83" rerouteNo="0" devices="tripinfo_WE_16" vType="car" speedFactor="0.94" vaporized=""/>
    <tripinfo id="SN_7" depart="7.00" departLane="3i_0" departPos="4.10" departSpeed="0.00" departDelay="0.00" arrival="101.00" arrivalLane="1o_0" arrivalPos="492.80" arrivalSpeed="10.74" duration="94.00" routeLength="995.70" waitingTime="7.00" waitingCount="2" stopTime="0.00" timeLoss="24.67" rerouteNo="0" devices="tripinfo_SN_7" vType="car" speedFactor="1.03" vaporized=""/>
    <tripinfo id="EW_21" depart="21.00" departLane="4i_0" departPos="4.10" departSpeed="0.00" departDelay="0.00" arrival="101.00" arrivalLane="3o_0" arrivalPos="492.80" arrivalSpeed="10.90" duration="80.00" routeLength="995.90" waitingTime="1.00" waitingCount="1" stopTime="0.00" timeLoss="15.07" rerouteNo="0" devices="tripinfo_EW_21" vType="car" speedFactor="1.09" vaporized=""/>
    <tripinfo id="EW_8" depart="8.00" departLane="4i_0" departPos="4.10" departSpeed="0.00" departDelay="0.00" arrival="103.00" arrivalLane="2o_0" arrivalPos="492.80" arrivalSpeed="8.97" duration="95.00" routeLength="995.70" waitingTime="0.00" waitingCount="0" stopTime="0.00" timeLoss="9.54" rerouteNo="0" devices="tripinfo_EW_8" vType="car" speedFactor="0.83" vaporized=""/>
    <tripinfo id="WE_30" depart="30.00" departLane="1i_0" departPos="4.10" departSpeed="0.00" departDelay="0.00" arrival="104.00" arrivalLane="3o_0" arrivalPos="492.80" arrivalSpeed="12.22" duration="74.00" routeLength="990.53" waitingTime="0.00" waitingCount="0" stopTime="0.00" timeLoss="10.69" rerouteNo="0" devices="tripinfo_WE_30" vType="car" speedFactor="1.12" vaporized=""/>
    <tripinfo id="EW_26" depart="26.00" departLane="4i_0" departPos="10.10" departSpeed="0.00" departDelay="0.00" arrival="108.00" arrivalLane="1o_0" arrivalPos="492.80" arrivalSpeed="10.80" duration="82.00" routeLength="984.53" waitingTime="0.00" waitingCount="0" stopTime="0.00" timeLoss="12.98" rerouteNo="0" devices="tripinfo_EW_26" vType="truck" speedFactor="1.02" vaporized=""/>
    <tripinfo id="NS_19" depart="19.00" departLane="2i_0" departPos="4.10" departSpeed="0.00" departDelay="0.00" arrival="114.00" arrivalLane="4o_0" arrivalPos="492.80" arrivalSpeed="8.61" duration="95.00" routeLength="990.53" waitingTime="0.00" waitingCount="0" stopTime="0.00" timeLoss="12.56" rerouteNo="0" devices="tripinfo_NS_19" vType="car" speedFactor="0.86" vaporized=""/>
    <tripinfo id="NS_23" depart="23.00" departLane="2i_0" departPos="4.10" departSpeed="0.00" departDelay="0.00" arrival="116.00" arrivalLane="4o_0" arrivalPos="492.80" arrivalSpeed="10.51" duration="93.00" routeLength="990.53" waitingTime="1.00" waitingCount="1" stopTime="0.00" timeLoss="23.77" rerouteNo="0" devices="tripinfo_NS_23" vType="car" speedFactor="1.03" vaporized=""/>
    <tripinfo id="EW_38" depart="38.00" departLane="4i_0" departPos="10.10" departSpeed="0.00" departDelay="0.00" arrival="121.00" arrivalLane="1o_0" arrivalPos="492.80" arrivalSpeed="10.66" duration="83.00" routeLength="984.53" waitingTime="0.00" waitingCount="0" stopTime="0.00" timeLoss="11.97" rerouteNo="0" devices="tripinfo_EW_38" vType="truck" speedFactor="1.00" vaporized=""/>
    <tripinfo id="EW_51" depart="51.00" departLane="4i_0" departPos="4.10" departSpeed="0.00" departDelay="0.00" arrival="126.00" arrivalLane="2o_0" arrivalPos="492.80" arrivalSpeed="12.45" duration="75.00" routeLength="995.70" waitingTime="0.00" waitingCount="0" stopTime="0.00" timeLoss="13.38" rerouteNo="0" devices="tripinfo_EW_51" vType="car" speedFactor="1.16" vaporized=""/>
    <tripinfo id="EW_42" depart="43.00" departLane="4i_0" departPos="10.10" departSpeed="0.00" departDelay="1.00" arrival="130.00" arrivalLane="3o_0" arrivalPos="492.80" arrivalSpeed="10.14" duration="87.00" routeLength="989.90" waitingTime="0.00" waitingCount="0" stopTime="0.00" timeLoss="11.95" rerouteNo="0" devices="tripinfo_EW_42" vType="truck" speedFactor="0.94" vaporized=""/>
    <tripinfo id="WE_45" depart="45.00" departLane="1i_0" departPos="10.10" departSpeed="0.00" departDelay="0.00" arrival="133.00" arrivalLane="3o_0" arrivalPos="492.80" arrivalSpeed="10.65" duration="88.00" routeLength="984.53" waitingTime="0.00" waitingCount="0" stopTime="0.00" timeLoss="15.28" rerouteNo="0" devices="tripinfo_WE_45" vType="truck" speedFactor="0.97" vaporized=""/>
    <tripinfo id="SN_40" depart="40.00" departLane="3i_0" departPos="10.10" departSpeed="0.00" departDelay="0.00" arrival="139.00" arrivalLane="2o_0" arrivalPos="492.80" arrivalSpeed="10.21" duration="99.00" routeLength="984.53" waitingTime="5.00" waitingCount="1" stopTime="0.00" timeLoss="26.24" rerouteNo="0" devices="tripinfo_SN_40" vType="truck" speedFactor="0.96" vaporized=""/>
    <tripinfo id="WE_46" depart="49.00" departLane="1i_0" departPos="4.10" departSpeed="0.00" departDelay="3.00" arrival="140.00" arrivalLane="3o_0" arrivalPos="492.80" arrivalSpeed="10.14" duration="91.00" routeLength="990.53" waitingTime="0.00" waitingCount="0" stopTime="0.00" timeLoss="15.21" rerouteNo="0" devices="tripinfo_WE_46" vType="car" speedFactor="0.94" vaporized=""/>
    <tripinfo id="SN_52" depart="52.00" departLane="3i_0" departPos="4.10" departSpeed="0.00" departDelay="0.00" arrival="140.00" arrivalLane="4o_0" arrivalPos="492.80" arrivalSpeed="11.02" duration="88.00" routeLength="995.90" waitingTime="1.00" waitingCount="1" stopTime="0.00" timeLoss="17.79" rerouteNo="0" devices="tripinfo_SN_52" vType="car" speedFactor="1.01" vaporized=""/>
    <tripinfo id="SN_11" depart="11.00" departLane="3i_0" departPos="4.10" departSpeed="0.00" departDelay="0.00" arrival="141.00" arrivalLane="1o_0" arrivalPos="492.80" arrivalSpeed="8.77" duration="130.00" routeLength="995.70" waitingTime="28.00" waitingCount="1" stopTime="0.00" timeLoss="49.55" rerouteNo="0" devices="tripinfo_SN_11" vType="car" speedFactor="0.89" vaporized=""/>
    <tripinfo id="NS_51" depart="51.00" departLane="2i_0" departPos="4.10" departSpeed="0.00" departDelay="0.00" arrival="142.00" arrivalLane="1o_0" arrivalPos="492.80" arrivalSpeed="10.39" duration="91.00" routeLength="995.90" waitingTime="3.00" waitingCount="1" stopTime="0.00" timeLoss="21.68" rerouteNo="0" devices="tripinfo_NS_51" vType="car" speedFactor="1.02" vaporized=""/>
    <tripinfo id="EW_57" depart="57.00" departLane="4i_0" departPos="4.10" departSpeed="0.00" departDelay="0.00" arrival="147.00" arrivalLane="3o_0" arrivalPos="492.80" arrivalSpeed="8.69" duration="90.00" routeLength="995.90" waitingTime="0.00" waitingCount="0" stopTime="0.00" timeLoss="10.30" rerouteNo="0" devices="tripinfo_EW_57" vType="car" speedFactor="0.89" vaporized=""/>
    <tripinfo id="SN_59" depart="61.00" departLane="3i_0" departPos="4.10" departSpeed="0.00" departDelay="2.00" arrival="148.00" arrivalLane="2o_0" arrivalPos="492.80" arrivalSpeed="10.07" duration="87.00" routeLength="990.53" waitingTime="0.00" waitingCount="0" stopTime="0.00" timeLoss="10.12" rerouteNo="0" devices="tripinfo_SN_59" vType="car" speedFactor="0.92" vaporized=""/>
    <tripinfo id="NS_55" depart="55.00" departLane="2i_0" departPos="4.10" departSpeed="0.00" departDelay="0.00" arrival="149.00" arrivalLane="3o_0" arrivalPos="492.80" arrivalSpeed="10.43" duration="94.00" routeLength="995.70" waitingTime="3.00" waitingCount="2" stopTime="0.00" timeLoss="20.99" rerouteNo="0" devices="tripinfo_NS_55" vType="car" speedFactor="0.97" vaporized=""/>
    <tripinfo id="SN_58" depart="58.00" departLane="3i_0" departPos="4.10" departSpeed="0.00" departDelay="0.00" arrival="150.00" arrivalLane="4o_0" arrivalPos="492.80" arrivalSpeed="9.56" duration="92.00" routeLength="995.90" waitingTime="0.00" waitingCount="0" stopTime="0.00" timeLoss="10.77" rerouteNo="0" devices="tripinfo_SN_58" vType="car" speedFactor="0.87" vaporized=""/>
    <tripinfo id="EW_75" depart="75.00" departLane="4i_0" departPos="4.10" departSpeed="0.00" departDelay="0.00" arrival="151.00" arrivalLane="3o_0" arrivalPos="492.80" arrivalSpeed="11.87" duration="76.00" routeLength="995.90" waitingTime="0.00" waitingCount="0" stopTime="0.00" timeLoss="13.88" rerouteNo="0" devices="tripinfo_EW_75" vType="car" speedFactor="1.15" vaporized=""/>
    <tripinfo id="EW_58" depart="59.00" departLane="4i_0" departPos="4.10" departSpeed="0.00" departDelay="1.00" arrival="155.00" arrivalLane="1o_0" arrivalPos="492.80" arrivalSpeed="9.15" duration="96.00" routeLength="990.53" waitingTime="0.00" waitingCount="0" stopTime="0.00" timeLoss="10.10" rerouteNo="0" devices="tripinfo_EW_58" vType="car" speedFactor="0.83" vaporized=""/>
    <tripinfo id="EW_78" depart="78.00" departLane="4i_0" departPos="4.10" departSpeed="0.00" departDelay="0.00" arrival="155.00" arrivalLane="2o_0" arrivalPos="492.80" arrivalSpeed="12.02" duration="77.00" routeLength="995.70" waitingTime="1.00" waitingCount="1" stopTime="0.00" timeLoss="16.06" rerouteNo="0" devices="tripinfo_EW_78" vType="car" speedFactor="1.17" vaporized=""/>
    <tripinfo id="NS_63" depart="63.00" departLane="2i_0" departPos="4.10" departSpeed="0.00" departDelay="0.00" arrival="156.00" arrivalLane="1o_0" arrivalPos="492.80" arrivalSpeed="9.33" duration="93.00" routeLength="995.90" waitingTime="1.00" waitingCount="1" stopTime="0.00" timeLoss="18.61" rerouteNo="0" devices="tripinfo_NS_63" vType="car" speedFactor="0.95" vaporized=""/>
    <tripinfo id="EW_69" depart="69.00" departLane="4i_0" departPos="4.10" departSpeed="0.00" departDelay="0.00" arrival="158.00" arrivalLane="1o_0" arrivalPos="492.80" arrivalSpeed="9.33" duration="89.00" routeLength="990.53" waitingTime="0.00" waitingCount="0" stopTime="0.00" timeLoss="13.44" rerouteNo="0" devices="tripinfo_EW_69" vType="car" speedFactor="0.93" vaporized=""/>
    <tripinfo id="NS_83" depart="83.00" departLane="2i_0" departPos="4.10" departSpeed="0.00" departDelay="0.00" arrival="160.00" arrivalLane="1o_0" arrivalPos="492.80" arrivalSpeed="12.19" duration="77.00" routeLength="995.90" waitingTime="0.00" waitingCount="0" stopTime="0.00" timeLoss="16.44" rerouteNo="0" devices="tripinfo_NS_83" vType="car" speedFactor="1.18" vaporized=""/>
    <tripinfo id="SN_80" depart="80.00" departLane="3i_0" departPos="4.10" departSpeed="0.00" departDelay="0.00" arrival="165.00" arrivalLane="4o_0" arrivalPos="492.80" arrivalSpeed="10.26" duration="85.00" routeLength="995.90" waitingTime="1.00" waitingCount="1" stopTime="0.00" timeLoss="13.22" rerouteNo="0" devices="tripinfo_SN_80" vType="car" speedFactor="0.99" vaporized=""/>
    <tripinfo id="SN_82" depart="84.00" departLane="3i_0" departPos="4.10" departSpeed="0.00" departDelay="2.00" arrival="166.00" arrivalLane="1o_0" arrivalPos="492.80" arrivalSpeed="10.14" duration="82.00" routeLength="995.70" waitingTime="0.00" waitingCount="0" stopTime="0.00" timeLoss="12.12" rerouteNo="0" devices="tripinfo_SN_82" vType="car" speedFactor="1.02" vaporized=""/>
    <tripinfo id="WE_66" depart="66.00" departLane="1i_0" departPos="10.10" departSpeed="0.00" departDelay="0.00" arrival="168.00" arrivalLane="2o_0" arrivalPos="492.80" arrivalSpeed="11.63" duration="102.00" routeLength="989.90" waitingTime="13.00" waitingCount="2" stopTime="0.00" timeLoss="35.01" rerouteNo="0" devices="tripinfo_WE_66" vType="truck" speedFactor="1.07" vaporized=""/>
    <tripinfo id="WE_70" depart="70.00" departLane="1i_0" departPos="4.10" departSpeed="0.00" departDelay="0.00" arrival="171.00" arrivalLane="3o_0" arrivalPos="492.80" arrivalSpeed="12.79" duration="101.00" routeLength="990.53" waitingTime="13.00" waitingCount="3" stopTime="0.00" timeLoss="40.53" rerouteNo="0" devices="tripinfo_WE_70" vType="car" speedFactor="1.18" vaporized=""/>
    <tripinfo id="EW_95" depart="95.00" departLane="4i_0" departPos="4.10" departSpeed="0.00" departDelay="0.00" arrival="172.00" arrivalLane="1o_0" arrivalPos="492.80" arrivalSpeed="10.80" duration="77.00" routeLength="990.53" waitingTime="0.00" waitingCount="0" stopTime="0.00" timeLoss="8.84" rerouteNo="0" devices="tripinfo_EW_95" vType="car" speedFactor="1.03" vaporized=""/>
    <tripinfo id="SN_88" depart="88.00" departLane="3i_0" departPos="4.10" departSpeed="0.00" departDelay="0.00" arrival="174.00" arrivalLane="1o_0" arrivalPos="492.80" arrivalSpeed="11.84" duration="86.00" routeLength="995.70" waitingTime="4.00" waitingCount="1" stopTime="0.00" timeLoss="21.55" rerouteNo="0" devices="tripinfo_SN_88" vType="car" speedFactor="1.10" vaporized=""/>
    <tripinfo id="EW_102" depart="102.00" departLane="4i_0" departPos="4.10" departSpeed="0.00" departDelay="0.00" arrival="184.00" arrivalLane="1o_0" arrivalPos="492.80" arrivalSpeed="9.63" duration="82.00" routeLength="990.53" waitingTime="0.00" waitingCount="0" stopTime="0.00" timeLoss="7.95" rerouteNo="0" devices="tripinfo_EW_102" vType="car" speedFactor="0.96" vaporized=""/>
    <tripinfo id="WE_78" depart="78.00" departLane="1i_0" departPos="4.10" departSpeed="0.00" departDelay="0.00" arrival="186.00" arrivalLane="2o_0" arrivalPos="492.80" arrivalSpeed="10.41" duration="108.00" routeLength="995.90" waitingTime="10.00" waitingCount="4" stopTime="0.00" timeLoss="37.16" rerouteNo="0" devices="tripinfo_WE_78" vType="car" speedFactor="1.01" vaporized=""/>
    <tripinfo id="EW_106" depart="106.00" departLane="4i_0" departPos="4.10" departSpeed="0.00" departDelay="0.00" arrival="187.00" arrivalLane="2o_0" arrivalPos="492.80" arrivalSpeed="12.09" duration="81.00" routeLength="995.70" waitingTime="0.00" waitingCount="0" stopTime="0.00" timeLoss="16.26" rerouteNo="0" devices="tripinfo_EW_106" vType="car" speedFactor="1.09" vaporized=""/>
    <tripinfo id="NS_111" depart="111.00" departLane="2i_0" departPos="4.10" departSpeed="0.00" departDelay="0.00" arrival="190.00" arrivalLane="4o_0" arrivalPos="492.80" arrivalSpeed="10.98" duration="79.00" routeLength="990.53" waitingTime="1.00" waitingCount="1" stopTime="0.00" timeLoss="11.39" rerouteNo="0" devices="tripinfo_NS_111" vType="car" speedFactor="1.04" vaporized=""/>
    <tripinfo id="WE_83" depart="83.00" departLane="1i_0" departPos="4.10" departSpeed="0.00" departDelay="0.00" arrival="195.00" arrivalLane="4o_0" arrivalPos="492.80" arrivalSpeed="10.21" duration="112.00" routeLength="995.70" waitingTime="7.00" waitingCount="3" stopTime="0.00" timeLoss="39.35" rerouteNo="0" devices="tripinfo_WE_83" vType="car" speedFactor="0.97" vaporized=""/>
    <tripinfo id="SN_114" depart="114.00" departLane="3i_0" departPos="4.10" departSpeed="0.00" departDelay="0.00" arrival="197.00" arrivalLane="4o_0" arrivalPos="492.80" arrivalSpeed="10.84" duration="83.00" routeLength="995.90" waitingTime="0.00" waitingCount="0" stopTime="0.00" timeLoss="11.79" rerouteNo="0" devices="tripinfo_SN_114" vType="car" speedFactor="1.00" vaporized=""/>
    <tripinfo id="EW_111" depart="111.00" departLane="4i_0" departPos="4.10" departSpeed="0.00" departDelay="0.00" arrival="198.00" arrivalLane="2o_0" arrivalPos="492.80" arrivalSpeed="10.90" duration="87.00" routeLength="995.70" waitingTime="2.00" waitingCount="1" stopTime="0.00" timeLoss="18.22" rerouteNo="0" devices="tripinfo_EW_111" vType="car" speedFactor="1.04" vaporized=""/>
    <tripinfo id="WE_113" depart="113.00" departLane="1i_0" departPos="4.10" departSpeed="0.00" departDelay="0.00" arrival="200.00" arrivalLane="2o_0" arrivalPos="492.80" arrivalSpeed="11.59" duration="87.00" routeLength="995.90" waitingTime="1.00" waitingCount="1" stopTime="0.00" timeLoss="21.18" rerouteNo="0" devices="tripinfo_WE_113" vType="car" speedFactor="1.09" vaporized=""/>
    <tripinfo id="WE_91" depart="91.00" departLane="1i_0" departPos="4.10" departSpeed="0.00" departDelay="0.00" arrival="207.00" arrivalLane="4o_0" arrivalPos="492.80" arrivalSpeed="9.33" duration="116.00" routeLength="995.70" waitingTime="2.00" waitingCount="2" stopTime="0.00" timeLoss="37.31" rerouteNo="0" devices="tripinfo_WE_91" vType="car" speedFactor="0.90" vaporized=""/>
    <tripinfo id="NS_117" depart="117.00" departLane="2i_0" departPos="4.10" departSpeed="0.00" departDelay="0.00" arrival="210.00" arrivalLane="1o_0" arrivalPos="492.80" arrivalSpeed="9.93" duration="93.00" routeLength="995.90" waitingTime="1.00" waitingCount="1" stopTime="0.00" timeLoss="14.06" rerouteNo="0" devices="tripinfo_NS_117" vType="car" speedFactor="0.90" vaporized=""/>
    <tripinfo id="SN_118" depart="118.00" departLane="3i_0" departPos="4.10" departSpeed="0.00" departDelay="0.00" arrival="214.00" arrivalLane="4o_0" arrivalPos="492.80" arrivalSpeed="9.50" duration="96.00" routeLength="995.90" waitingTime="0.00" waitingCount="0" stopTime="0.00" timeLoss="15.06" rerouteNo="0" devices="tripinfo_SN_118" vType="car" speedFactor="0.88" vaporized=""/>
    <tripinfo id="SN_132" depart="133.00" departLane="3i_0" departPos="4.10" departSpeed="0.00" departDelay="1.00" arrival="216.00" arrivalLane="4o_0" arrivalPos="492.80" arrivalSpeed="10.97" duration="83.00" routeLength="995.90" waitingTime="0.00" waitingCount="0" stopTime="0.00" timeLoss="12.82" rerouteNo="0" devices="tripinfo_SN_132" vType="car" speedFactor="1.02" vaporized=""/>
    <tripinfo id="EW_137" depart="137.00" departLane="4i_0" departPos="4.10" departSpeed="0.00" departDelay="0.00" arrival="216.00" arrivalLane="1o_0" arrivalPos="492.80" arrivalSpeed="10.21" duration="79.00" routeLength="990.53" waitingTime="0.00" waitingCount="0" stopTime="0.00" timeLoss="8.21" rerouteNo="0" devices="tripinfo_EW_137" vType="car" speedFactor="1.00" vaporized=""/>
    <tripinfo id="WE_127" depart="127.00" departLane="1i_0" departPos="4.10" departSpeed="0.00" departDelay="0.00" arrival="225.00" arrivalLane="2o_0" arrivalPos="492.80" arrivalSpeed="8.66" duration="98.00" routeLength="995.90" waitingTime="0.00" waitingCount="0" stopTime="0.00" timeLoss="14.41" rerouteNo="0" devices="tripinfo_WE_127" vType="car" speedFactor="0.85" vaporized=""/>
    <tripinfo id="WE_132" depart="132.00" departLane="1i_0" departPos="4.10" departSpeed="0.00" departDelay="0.00" arrival="227.00" arrivalLane="2o_0" arrivalPos="492.80" arrivalSpeed="12.01" duration="95.00" routeLength="995.90" waitingTime="4.00" waitingCount="1" stopTime="0.00" timeLoss="33.78" rerouteNo="0" devices="tripinfo_WE_132" vType="car" speedFactor="1.17" vaporized=""/>
    <tripinfo id="EW_139" depart="140.00" departLane="4i_0" departPos="4.10" departSpeed="0.00" departDelay="1.00" arrival="227.00" arrivalLane="1o_0" arrivalPos="492.80" arrivalSpeed="8.77" duration="87.00" routeLength="990.53" waitingTime="0.00" waitingCount="0" stopTime="0.00" timeLoss="8.27" rerouteNo="0" devices="tripinfo_EW_139" vType="car" speedFactor="0.90" vaporized=""/>
    <tripinfo id="NS_127" depart="127.00" departLane="2i_0" departPos="4.10" departSpeed="0.00" departDelay="0.00" arrival="228.00" arrivalLane="3o_0" arrivalPos="492.80" arrivalSpeed="9.33" duration="101.00" routeLength="995.70" waitingTime="3.00" waitingCount="2" stopTime="0.00" timeLoss="17.67" rerouteNo="0" devices="tripinfo_NS_127" vType="car" speedFactor="0.85" vaporized=""/>
    <tripinfo id="EW_141" depart="142.00" departLane="4i_0" departPos="4.10" departSpeed="0.00" departDelay="1.00" arrival="228.00" arrivalLane="2o_0" arrivalPos="492.80" arrivalSpeed="12.17" duration="86.00" routeLength="995.70" waitingTime="0.00" waitingCount="0" stopTime="0.00" timeLoss="24.01" rerouteNo="0" devices="tripinfo_EW_141" vType="car" speedFactor="1.14" vaporized=""/>
    <tripinfo id="WE_134" depart="135.00" departLane="1i_0" departPos="4.10" departSpeed="0.00" departDelay="1.00" arrival="229.00" arrivalLane="4o_0" arrivalPos="492.80" arrivalSpeed="11.45" duration="94.00" routeLength="995.70" waitingTime="4.00" waitingCount="2" stopTime="0.00" timeLoss="29.00" rerouteNo="0" devices="tripinfo_WE_134" vType="car" speedFactor="1.10" vaporized=""/>
    <tripinfo id="NS_137" depart="139.00" departLane="2i_0" departPos="4.10" departSpeed="0.00" departDelay="2.00" arrival="229.00" arrivalLane="1o_0" arrivalPos="492.80" arrivalSpeed="10.58" duration="90.00" routeLength="995.90" waitingTime="0.00" waitingCount="0" stopTime="0.00" timeLoss="18.39" rerouteNo="0" devices="tripinfo_NS_137" vType="car" speedFactor="1.00" vaporized=""/>
    <tripinfo id="EW_158" depart="158.00" departLane="4i_0" departPos="4.10" departSpeed="0.00" departDelay="0.00" arrival="230.00" arrivalLane="1o_0" arrivalPos="492.80" arrivalSpeed="11.48" duration="72.00" routeLength="990.53" waitingTime="0.00" waitingCount="0" stopTime="0.00" timeLoss="9.19" rerouteNo="0" devices="tripinfo_EW_158" vType="car" speedFactor="1.12" vaporized=""/>
    <tripinfo id="NS_147" depart="148.00" departLane="2i_0" departPos="4.10" departSpeed="0.00" departDelay="1.00" arrival="231.00" arrivalLane="3o_0" arrivalPos="492.80" arrivalSpeed="11.34" duration="83.00" routeLength="995.70" waitingTime="1.00" waitingCount="1" stopTime="0.00" timeLoss="13.84" rerouteNo="0" devices="tripinfo_NS_147" vType="car" speedFactor="1.02" vaporized=""/>
    <tripinfo id="SN_154" depart="154.00" departLane="3i_0" departPos="4.10" departSpeed="0.00" departDelay="0.00" arrival="237.00" arrivalLane="4o_0" arrivalPos="492.80" arrivalSpeed="9.86" duration="83.00" routeLength="995.90" waitingTime="0.00" waitingCount="0" stopTime="0.00" timeLoss="10.04" rerouteNo="0" devices="tripinfo_SN_154" vType="car" speedFactor="0.97" vaporized=""/>
    <tripinfo id="SN_157" depart="157.00" departLane="3i_0" departPos="4.10" departSpeed="0.00" departDelay="0.00" arrival="239.00" arrivalLane="4o_0" arrivalPos="492.80" arrivalSpeed="11.44" duration="82.00" routeLength="995.90" waitingTime="0.00" waitingCount="0" stopTime="0.00" timeLoss="16.30" rerouteNo="0" devices="tripinfo_SN_157" vType="car" speedFactor="1.08" vaporized=""/>
    <tripinfo id="NS_158" depart="158.00" departLane="2i_0" departPos="4.10" departSpeed="0.00" departDelay="0.00" arrival="240.00" arrivalLane="1o_0" arrivalPos="492.80" arrivalSpeed="11.27" duration="82.00" routeLength="995.90" waitingTime="0.00" waitingCount="0" stopTime="0.00" timeLoss="12.05" rerouteNo="0" devices="tripinfo_NS_158" vType="car" speedFactor="1.02" vaporized=""/>
    <tripinfo id="EW_165" depart="165.00" departLane="4i_0" departPos="10.10" departSpeed="0.00" departDelay="0.00" arrival="249.00" arrivalLane="1o_0" arrivalPos="492.80" arrivalSpeed="10.35" duration="84.00" routeLength="984.53" waitingTime="0.00" waitingCount="0" stopTime="0.00" timeLoss="11.11" rerouteNo="0" devices="tripinfo_EW_165" vType="truck" speedFactor="0.97" vaporized=""/>
    <tripinfo id="WE_162" depart="162.00" departLane="1i_0" departPos="4.10" departSpeed="0.00" departDelay="0.00" arrival="256.00" arrivalLane="3o_0" arrivalPos="492.80" arrivalSpeed="10.63" duration="94.00" routeLength="990.53" waitingTime="10.00" waitingCount="1" stopTime="0.00" timeLoss="22.80" rerouteNo="0" devices="tripinfo_WE_162" vType="car" speedFactor="0.99" vaporized=""/>
    <tripinfo id="EW_177" depart="177.00" departLane="4i_0" departPos="4.10" departSpeed="0.00" departDelay="0.00" arrival="263.00" arrivalLane="3o_0" arrivalPos="492.80" arrivalSpeed="9.25" duration="86.00" routeLength="995.90" waitingTime="0.00" waitingCount="0" stopTime="0.00" timeLoss="8.58" rerouteNo="0" devices="tripinfo_EW_177" vType="car" speedFactor="0.91" vaporized=""/>
    <tripinfo id="NS_173" depart="173.00" departLane="2i_0" departPos="4.10" departSpeed="0.00" departDelay="0.00" arrival="266.00" arrivalLane="4o_0" arrivalPos="492.80" arrivalSpeed="9.21" duration="93.00" routeLength="990.53" waitingTime="1.00" waitingCount="1" stopTime="0.00" timeLoss="12.55" rerouteNo="0" devices="tripinfo_NS_173" vType="car" speedFactor="0.88" vaporized=""/>
    <tripinfo id="EW_188" depart="188.00" departLane="4i_0" departPos="10.10" departSpeed="0.00" departDelay="0.00" arrival="270.00" arrivalLane="3o_0" arrivalPos="492.80" arrivalSpeed="10.73" duration="82.00" routeLength="989.90" waitingTime="0.00" waitingCount="0" stopTime="0.00" timeLoss="12.00" rerouteNo="0" devices="tripinfo_EW_188" vType="truck" speedFactor="1.01" vaporized=""/>
    <tripinfo id="SN_181" depart="181.00" departLane="3i_0" departPos="4.10" departSpeed="0.00" departDelay="0.00" arrival="279.00" arrivalLane="2o_0" arrivalPos="492.80" arrivalSpeed="11.38" duration="98.00" routeLength="990.53" waitingTime="14.00" waitingCount="1" stopTime="0.00" timeLoss="29.89" rerouteNo="0" devices="tripinfo_SN_181" vType="car" speedFactor="1.04" vaporized=""/>
    <tripinfo id="SN_173" depart="173.00" departLane="3i_0" departPos="4.10" departSpeed="0.00" departDelay="0.00" arrival="283.00" arrivalLane="1o_0" arrivalPos="492.80" arrivalSpeed="9.64" duration="110.00" routeLength="995.70" waitingTime="17.00" waitingCount="1" stopTime="0.00" timeLoss="31.30" rerouteNo="0" devices="tripinfo_SN_173" vType="car" speedFactor="0.91" vaporized=""/>
    <tripinfo id="SN_185" depart="185.00" departLane="3i_0" departPos="10.10" departSpeed="0.00" departDelay="0.00" arrival="283.00" arrivalLane="2o_0" arrivalPos="492.80" arrivalSpeed="10.81" duration="98.00" routeLength="984.53" waitingTime="5.00" waitingCount="1" stopTime="0.00" timeLoss="28.94" rerouteNo="0" devices="tripinfo_SN_185" vType="truck" speedFactor="1.01" vaporized=""/>
    <tripinfo id="NS_191" depart="191.00" departLane="2i_0" departPos="4.10" departSpeed="0.00" departDelay="0.00" arrival="284.00" arrivalLane="1o_0" arrivalPos="492.80" arrivalSpeed="10.30" duration="93.00" routeLength="995.90" waitingTime="2.00" waitingCount="2" stopTime="0.00" timeLoss="17.83" rerouteNo="0" devices="tripinfo_NS_191" vType="car" speedFactor="0.94" vaporized=""/>
    <tripinfo id="EW_202" depart="202.00" departLane="4i_0" departPos="4.10" departSpeed="0.00" departDelay="0.00" arrival="286.00" arrivalLane="1o_0" arrivalPos="492.80" arrivalSpeed="11.17" duration="84.00" routeLength="990.53" waitingTime="0.00" waitingCount="0" stopTime="0.00" timeLoss="17.05" rerouteNo="0" devices="tripinfo_EW_202" vType="car" speedFactor="1.06" vaporized=""/>
    <tripinfo id="SN_188" depart="189.00" departLane="3i_0" departPos="4.10" departSpeed="0.00" departDelay="1.00" arrival="289.00" arrivalLane="2o_0" arrivalPos="492.80" arrivalSpeed="9.57" duration="100.00" routeLength="990.53" waitingTime="4.00" waitingCount="1" stopTime="0.00" timeLoss="27.09" rerouteNo="0" devices="tripinfo_SN_188" vType="car" speedFactor="0.97" vaporized=""/>
    <tripinfo id="NS_205" depart="205.00" departLane="2i_0" departPos="4.10" departSpeed="0.00" departDelay="0.00" arrival="291.00" arrivalLane="3o_0" arrivalPos="492.80" arrivalSpeed="10.34" duration="86.00" routeLength="995.70" waitingTime="0.00" waitingCount="0" stopTime="0.00" timeLoss="11.18" rerouteNo="0" devices="tripinfo_NS_205" vType="car" speedFactor="0.96" vaporized=""/>
    <tripinfo id="WE_208" depart="208.00" departLane="1i_0" departPos="4.10" departSpeed="0.00" departDelay="0.00" arrival="297.00" arrivalLane="3o_0" arrivalPos="492.80" arrivalSpeed="10.86" duration="89.00" routeLength="990.53" waitingTime="7.00" waitingCount="1" stopTime="0.00" timeLoss="17.51" rerouteNo="0" devices="tripinfo_WE_208" vType="car" speedFactor="0.98" vaporized=""/>