<?xml version="1.0" encoding="UTF-8"?>

<!-- generated on 2024-05-04 20:29:30 by Eclipse SUMO sumo Version 1.19.0
<configuration xmlns:xsi="http://www.w3.org/2001/XMLSchema-instance" xsi:noNamespaceSchemaLocation="http://sumo.dlr.de/xsd/sumoConfiguration.xsd">

    <input>
        <net-file value="test5.net.xml"/>
        <route-files value="route_gen.rou.xml"/>
    </input>

    <output>
        <tripinfo-output value="tripinfo_epi811.xml"/>
    </output>

    <report>
        <no-warnings value="true"/>
    </report>

    <traci_server>
        <remote-port value="37647"/>
    </traci_server>

</configuration>
-->

<tripinfos xmlns:xsi="http://www.w3.org/2001/XMLSchema-instance" xsi:noNamespaceSchemaLocation="http://sumo.dlr.de/xsd/tripinfo_file.xsd">
    <tripinfo id="WE_7" depart="7.00" departLane="1i_0" departPos="4.10" departSpeed="0.00" departDelay="0.00" arrival="83.00" arrivalLane="3o_0" arrivalPos="492.80" arrivalSpeed="10.48" duration="76.00" routeLength="990.53" waitingTime="0.00" waitingCount="0" stopTime="0.00" timeLoss="9.46" rerouteNo="0" devices="tripinfo_WE_7" vType="car" speedFactor="1.06" vaporized=""/>
    <tripinfo id="SN_9" depart="9.00" departLane="3i_0" departPos="4.10" departSpeed="0.00" departDelay="0.00" arrival="84.00" arrivalLane="2o_0" arrivalPos="492.80" arrivalSpeed="11.33" duration="75.00" routeLength="990.53" waitingTime="1.00" waitingCount="1" stopTime="0.00" timeLoss="9.88" rerouteNo="0" devices="tripinfo_SN_9" vType="car" speedFactor="1.08" vaporized=""/>
    <tripinfo id="EW_8" depart="8.00" departLane="4i_0" departPos="4.10" departSpeed="0.00" departDelay="0.00" arrival="90.00" arrivalLane="2o_0" arrivalPos="492.80" arrivalSpeed="10.81" duration="82.00" routeLength="995.70" waitingTime="0.00" waitingCount="0" stopTime="0.00" timeLoss="11.45" rerouteNo="0" devices="tripinfo_EW_8" vType="car" speedFactor="1.01" vaporized=""/>
    <tripinfo id="EW_19" depart="19.00" departLane="4i_0" departPos="4.10" departSpeed="0.00" departDelay="0.00" arrival="105.00" arrivalLane="1o_0" arrivalPos="492.80" arrivalSpeed="9.15" duration="86.00" routeLength="990.53" waitingTime="0.00" waitingCount="0" stopTime="0.00" timeLoss="10.80" rerouteNo="0" devices="tripinfo_EW_19" vType="car" speedFactor="0.94" vaporized=""/>
    <tripinfo id="NS_7" depart="7.00" departLane="2i_0" departPos="10.10" departSpeed="0.00" departDelay="0.00" arrival="107.00" arrivalLane="3o_0" arrivalPos="492.80" arrivalSpeed="10.51" duration="100.00" routeLength="989.70" waitingTime="4.00" waitingCount="3" stopTime="0.00" timeLoss="27.33" rerouteNo="0" devices="tripinfo_NS_7" vType="truck" speedFactor="0.97" vaporized=""/>
    <tripinfo id="WE_16" depart="16.00" departLane="1i_0" departPos="4.10" departSpeed="0.00" departDelay="0.00" arrival="107.00" arrivalLane="2o_0" arrivalPos="492.80" arrivalSpeed="8.93" duration="91.00" routeLength="995.90" waitingTime="1.00" waitingCount="1" stopTime="0.00" timeLoss="10.97" rerouteNo="0" devices="tripinfo_WE_16" vType="car" speedFactor="0.89" vaporized=""/>
    <tripinfo id="NS_11" depart="11.00" departLane="2i_0" departPos="4.10" departSpeed="0.00" departDelay="0.00" arrival="109.00" arrivalLane="3o_0" arrivalPos="492.80" arrivalSpeed="11.07" duration="98.00" routeLength="995.70" waitingTime="0.00" waitingCount="0" stopTime="0.00" timeLoss="29.56" rerouteNo="0" devices="tripinfo_NS_11" vType="car" speedFactor="1.03" vaporized=""/>
    <tripinfo id="NS_15" depart="16.00" departLane="2i_0" departPos="4.10" departSpeed="0.00" departDelay="1.00" arrival="111.00" arrivalLane="3o_0" arrivalPos="492.80" arrivalSpeed="11.10" duration="95.00" routeLength="995.70" waitingTime="0.00" waitingCount="0" stopTime="0.00" timeLoss="27.35" rerouteNo="0" devices="tripinfo_NS_15" vType="car" speedFactor="1.05" vaporized=""/>
    <tripinfo id="SN_23" depart="25.00" departLane="3i_0" departPos="4.10" departSpeed="0.00" departDelay="2.00" arrival="114.00" arrivalLane="2o_0" arrivalPos="492.80" arrivalSpeed="11.58" duration="89.00" routeLength="990.53" waitingTime="6.00" waitingCount="1" stopTime="0.00" timeLoss="23.82" rerouteNo="0" devices="tripinfo_SN_23" vType="car" speedFactor="1.09" vaporized=""/>
    <tripinfo id="EW_31" depart="31.00" departLane="4i_0" departPos="4.10" departSpeed="0.00" departDelay="0.00" arrival="114.00" arrivalLane="3o_0" arrivalPos="492.80" arrivalSpeed="11.92" duration="83.00" routeLength="995.90" waitingTime="4.00" waitingCount="2" stopTime="0.00" timeLoss="19.55" rerouteNo="0" devices="tripinfo_EW_31" vType="car" speedFactor="1.12" vaporized=""/>
    <tripinfo id="NS_12" depart="13.00" departLane="2i_0" departPos="4.10" departSpeed="0.00" departDelay="1.00" arrival="121.00" arrivalLane="1o_0" arrivalPos="492.80" arrivalSpeed="8.94" duration="108.00" routeLength="995.90" waitingTime="1.00" waitingCount="1" stopTime="0.00" timeLoss="22.41" rerouteNo="0" devices="tripinfo_NS_12" vType="car" speedFactor="0.83" vaporized=""/>
    <tripinfo id="SN_22" depart="22.00" departLane="3i_0" departPos="4.10" departSpeed="0.00" departDelay="0.00" arrival="125.00" arrivalLane="1o_0" arrivalPos="492.80" arrivalSpeed="9.49" duration="103.00" routeLength="995.70" waitingTime="6.00" waitingCount="1" stopTime="0.00" timeLoss="19.95" rerouteNo="0" devices="tripinfo_SN_22" vType="car" speedFactor="0.86" vaporized=""/>
    <tripinfo id="SN_24" depart="28.00" departLane="3i_0" departPos="4.10" departSpeed="0.00" departDelay="4.00" arrival="126.00" arrivalLane="1o_0" arrivalPos="492.80" arrivalSpeed="10.93" duration="98.00" routeLength="995.70" waitingTime="5.00" waitingCount="1" stopTime="0.00" timeLoss="29.10" rerouteNo="0" devices="tripinfo_SN_24" vType="car" speedFactor="1.03" vaporized=""/>
    <tripinfo id="WE_38" depart="38.00" departLane="1i_0" departPos="4.10" departSpeed="0.00" departDelay="0.00" arrival="129.00" arrivalLane="2o_0" arrivalPos="492.80" arrivalSpeed="10.16" duration="91.00" routeLength="995.90" waitingTime="0.00" waitingCount="0" stopTime="0.00" timeLoss="15.12" rerouteNo="0" devices="tripinfo_WE_38" vType="car" speedFactor="0.94" vaporized=""/>
    <tripinfo id="SN_27" depart="32.00" departLane="3i_0" departPos="10.10" departSpeed="0.00" departDelay="5.00" arrival="130.00" arrivalLane="4o_0" arrivalPos="492.80" arrivalSpeed="10.84" duration="98.00" routeLength="989.90" waitingTime="2.00" waitingCount="1" stopTime="0.00" timeLoss="28.81" rerouteNo="0" devices="tripinfo_SN_27" vType="truck" speedFactor="1.02" vaporized=""/>
    <tripinfo id="NS_45" depart="45.00" departLane="2i_0" departPos="4.10" departSpeed="0.00" departDelay="0.00" arrival="132.00" arrivalLane="4o_0" arrivalPos="492.80" arrivalSpeed="12.76" duration="87.00" routeLength="990.53" waitingTime="8.00" waitingCount="1" stopTime="0.00" timeLoss="25.92" rerouteNo="0" devices="tripinfo_NS_45" vType="car" speedFactor="1.16" vaporized=""/>
    <tripinfo id="NS_36" depart="36.00" departLane="2i_0" departPos="4.10" departSpeed="0.00" departDelay="0.00" arrival="139.00" arrivalLane="3o_0" arrivalPos="492.80" arrivalSpeed="9.77" duration="103.00" routeLength="995.70" waitingTime="12.00" waitingCount="2" stopTime="0.00" timeLoss="26.04" rerouteNo="0" devices="tripinfo_NS_36" vType="car" speedFactor="0.93" vaporized=""/>
    <tripinfo id="SN_33" depart="36.00" departLane="3i_0" departPos="4.10" departSpeed="0.00" departDelay="3.00" arrival="140.00" arrivalLane="1o_0" arrivalPos="492.80" arrivalSpeed="10.03" duration="104.00" routeLength="995.70" waitingTime="2.00" waitingCount="2" stopTime="0.00" timeLoss="32.32" rerouteNo="0" devices="tripinfo_SN_33" vType="car" speedFactor="0.99" vaporized=""/>
    <tripinfo id="EW_48" depart="48.00" departLane="4i_0" departPos="4.10" departSpeed="0.00" departDelay="0.00" arrival="144.00" arrivalLane="2o_0" arrivalPos="492.80" arrivalSpeed="9.46" duration="96.00" routeLength="995.70" waitingTime="4.00" waitingCount="1" stopTime="0.00" timeLoss="16.59" rerouteNo="0" devices="tripinfo_EW_48" vType="car" speedFactor="0.89" vaporized=""/>
    <tripinfo id="WE_40" depart="41.00" departLane="1i_0" departPos="4.10" departSpeed="0.00" departDelay="1.00" arrival="147.00" arrivalLane="4o_0" arrivalPos="492.80" arrivalSpeed="9.12" duration="106.00" routeLength="995.70" waitingTime="12.00" waitingCount="1" stopTime="0.00" timeLoss="29.87" rerouteNo="0" devices="tripinfo_WE_40" vType="car" speedFactor="0.94" vaporized=""/>
    <tripinfo id="SN_36" depart="38.00" departLane="3i_0" departPos="4.10" departSpeed="0.00" departDelay="2.00" arrival="149.00" arrivalLane="2o_0" arrivalPos="492.80" arrivalSpeed="8.75" duration="111.00" routeLength="990.53" waitingTime="2.00" waitingCount="2" stopTime="0.00" timeLoss="30.65" rerouteNo="0" devices="tripinfo_SN_36" vType="car" speedFactor="0.88" vaporized=""/>
    <tripinfo id="SN_79" depart="79.00" departLane="3i_0" departPos="4.10" departSpeed="0.00" departDelay="0.00" arrival="149.00" arrivalLane="4o_0" arrivalPos="492.80" arrivalSpeed="12.32" duration="70.00" routeLength="995.90" waitingTime="0.00" waitingCount="0" stopTime="0.00" timeLoss="8.83" rerouteNo="0" devices="tripinfo_SN_79" vType="car" speedFactor="1.17" vaporized=""/>
    <tripinfo id="EW_52" depart="52.00" departLane="4i_0" departPos="4.10" departSpeed="0.00" departDelay="0.00" arrival="150.00" arrivalLane="3o_0" arrivalPos="492.80" arrivalSpeed="9.19" duration="98.00" routeLength="995.90" waitingTime="3.00" waitingCount="1" stopTime="0.00" timeLoss="20.96" rerouteNo="0" devices="tripinfo_EW_52" vType="car" speedFactor="0.92" vaporized=""/>
    <tripinfo id="SN_45" depart="45.00" departLane="3i_0" departPos="4.10" departSpeed="0.00" departDelay="0.00" arrival="151.00" arrivalLane="2o_0" arrivalPos="492.80" arrivalSpeed="10.74" duration="106.00" routeLength="990.53" waitingTime="1.00" waitingCount="1" stopTime="0.00" timeLoss="36.27" rerouteNo="0" devices="tripinfo_SN_45" vType="car" speedFactor="1.02" vaporized=""/>
    <tripinfo id="WE_47" depart="47.00" departLane="1i_0" departPos="4.10" departSpeed="0.00" departDelay="0.00" arrival="152.00" arrivalLane="3o_0" arrivalPos="492.80" arrivalSpeed="10.46" duration="105.00" routeLength="990.53" waitingTime="16.00" waitingCount="3" stopTime="0.00" timeLoss="35.12" rerouteNo="0" devices="tripinfo_WE_47" vType="car" speedFactor="1.01" vaporized=""/>
    <tripinfo id="SN_62" depart="62.00" departLane="3i_0" departPos="4.10" departSpeed="0.00" departDelay="0.00" arrival="152.00" arrivalLane="2o_0" arrivalPos="492.80" arrivalSpeed="11.85" duration="90.00" routeLength="990.53" waitingTime="0.00" waitingCount="0" stopTime="0.00" timeLoss="27.78" rerouteNo="0" devices="tripinfo_SN_62" vType="car" speedFactor="1.13" vaporized=""/>
    <tripinfo id="EW_64" depart="64.00" departLane="4i_0" departPos="10.10" departSpeed="0.00" departDelay="0.00" arrival="163.00" arrivalLane="2o_0" arrivalPos="492.80" arrivalSpeed="10.31" duration="99.00" routeLength="989.70" waitingTime="2.00" waitingCount="2" stopTime="0.00" timeLoss="25.68" rerouteNo="0" devices="tripinfo_EW_64" vType="truck" speedFactor="0.97" vaporized=""/>
    <tripinfo id="WE_48" depart="50.00" departLane="1i_0" departPos="4.10" departSpeed="0.00" departDelay="2.00" arrival="167.00" arrivalLane="2o_0" arrivalPos="492.80" arrivalSpeed="9.69" duration="117.00" routeLength="995.90" waitingTime="18.00" waitingCount="5" stopTime="0.00" timeLoss="43.97" rerouteNo="0" devices="tripinfo_WE_48" vType="car" speedFactor="0.97" vaporized=""/>
    <tripinfo id="SN_80" depart="83.00" departLane="3i_0" departPos="4.10" departSpeed="0.00" departDelay="3.00" arrival="167.00" arrivalLane="1o_0" arrivalPos="492.80" arrivalSpeed="9.93" duration="84.00" routeLength="995.70" waitingTime="1.00" waitingCount="1" stopTime="0.00" timeLoss="12.59" rerouteNo="0" devices="tripinfo_SN_80" vType="car" speedFactor="0.99" vaporized=""/>
    <tripinfo id="NS_87" depart="87.00" departLane="2i_0" departPos="4.10" departSpeed="0.00" departDelay="0.00" arrival="170.00" arrivalLane="1o_0" arrivalPos="492.80" arrivalSpeed="10.12" duration="83.00" routeLength="995.90" waitingTime="0.00" waitingCount="0" stopTime="0.00" timeLoss="9.69" rerouteNo="0" devices="tripinfo_NS_87" vType="car" speedFactor="0.97" vaporized=""/>
    <tripinfo id="SN_81" depart="85.00" departLane="3i_0" departPos="4.10" departSpeed="0.00" departDelay="4.00" arrival="171.00" arrivalLane="2o_0" arrivalPos="492.80" arrivalSpeed="10.89" duration="86.00" routeLength="990.53" waitingTime="0.00" waitingCount="0" stopTime="0.00" timeLoss="16.55" rerouteNo="0" devices="tripinfo_SN_81" vType="car" speedFactor="1.02" vaporized=""/>
    <tripinfo id="EW_68" depart="69.00" departLane="4i_0" departPos="10.10" departSpeed="0.00" departDelay="1.00" arrival="172.00" arrivalLane="1o_0" arrivalPos="492.80" arrivalSpeed="11.55" duration="103.00" routeLength="984.53" waitingTime="6.00" waitingCount="3" stopTime="0.00" timeLoss="37.20" rerouteNo="0" devices="tripinfo_EW_68" vType="truck" speedFactor="1.09" vaporized=""/>
    <tripinfo id="WE_49" depart="53.00" departLane="1i_0" departPos="4.10" departSpeed="0.00" departDelay="4.00" arrival="177.00" arrivalLane="3o_0" arrivalPos="492.80" arrivalSpeed="8.08" duration="124.00" routeLength="990.53" waitingTime="14.00" waitingCount="4" stopTime="0.00" timeLoss="39.04" rerouteNo="0" devices="tripinfo_WE_49" vType="car" speedFactor="0.83" vaporized=""/>
    <tripinfo id="WE_54" depart="59.00" departLane="1i_0" departPos="10.10" departSpeed="0.00" departDelay="5.00" arrival="177.00" arrivalLane="4o_0" arrivalPos="492.80" arrivalSpeed="10.68" duration="118.00" routeLength="989.70" waitingTime="4.00" waitingCount="2" stopTime="0.00" timeLoss="45.15" rerouteNo="0" devices="tripinfo_WE_54" vType="truck" speedFactor="0.97" vaporized=""/>
    <tripinfo id="WE_74" depart="74.00" departLane="1i_0" departPos="4.10" departSpeed="0.00" departDelay="0.00" arrival="177.00" arrivalLane="2o_0" arrivalPos="492.80" arrivalSpeed="12.80" duration="103.00" routeLength="995.90" waitingTime="7.00" waitingCount="3" stopTime="0.00" timeLoss="41.91" rerouteNo="0" devices="tripinfo_WE_74" vType="car" speedFactor="1.15" vaporized=""/>
    <tripinfo id="WE_51" depart="56.00" departLane="1i_0" departPos="4.10" departSpeed="0.00" departDelay="5.00" arrival="179.00" arrivalLane="3o_0" arrivalPos="492.80" arrivalSpeed="9.65" duration="123.00" routeLength="990.53" waitingTime="11.00" waitingCount="3" stopTime="0.00" timeLoss="42.27" rerouteNo="0" devices="tripinfo_WE_51" vType="car" speedFactor="0.87" vaporized=""/>
    <tripinfo id="SN_96" depart="96.00" departLane="3i_0" departPos="4.10" departSpeed="0.00" departDelay="0.00" arrival="179.00" arrivalLane="4o_0" arrivalPos="492.80" arrivalSpeed="11.39" duration="83.00" routeLength="995.90" waitingTime="0.00" waitingCount="0" stopTime="0.00" timeLoss="14.17" rerouteNo="0" devices="tripinfo_SN_96" vType="car" speedFactor="1.03" vaporized=""/>
    <tripinfo id="NS_92" depart="92.00" departLane="2i_0" departPos="4.10" departSpeed="0.00" departDelay="0.00" arrival="181.00" arrivalLane="3o_0" arrivalPos="492.80" arrivalSpeed="12.94" duration="89.00" routeLength="995.70" waitingTime="0.00" waitingCount="0" stopTime="0.00" timeLoss="28.55" rerouteNo="0" devices="tripinfo_NS_92" vType="car" speedFactor="1.18" vaporized=""/>
    <tripinfo id="SN_98" depart="99.00" departLane="3i_0" departPos="4.10" departSpeed="0.00" departDelay="1.00" arrival="181.00" arrivalLane="4o_0" arrivalPos="492.80" arrivalSpeed="11.18" duration="82.00" routeLength="995.90" waitingTime="0.00" waitingCount="0" stopTime="0.00" timeLoss="16.77" rerouteNo="0" devices="tripinfo_SN_98" vType="car" speedFactor="1.09" vaporized=""/>
    <tripinfo id="SN_103" depart="103.00" departLane="3i_0" departPos="4.10" departSpeed="0.00" departDelay="0.00" arrival="182.00" arrivalLane="2o_0" arrivalPos="492.80" arrivalSpeed="11.86" duration="79.00" routeLength="990.53" waitingTime="1.00" waitingCount="1" stopTime="0.00" timeLoss="14.24" rerouteNo="0" devices="tripinfo_SN_103" vType="car" speedFactor="1.09" vaporized=""/>
    <tripinfo id="EW_101" depart="101.00" departLane="4i_0" departPos="4.10" departSpeed="0.00" departDelay="0.00" arrival="183.00" arrivalLane="3o_0" arrivalPos="492.80" arrivalSpeed="10.92" duration="82.00" routeLength="995.90" waitingTime="0.00" waitingCount="0" stopTime="0.00" timeLoss="13.40" rerouteNo="0" devices="tripinfo_EW_101" vType="car" speedFactor="1.04" vaporized=""/>
    <tripinfo id="NS_97" depart="97.00" departLane="2i_0" departPos="4.10" departSpeed="0.00" departDelay="0.00" arrival="186.00" arrivalLane="4o_0" arrivalPos="492.80" arrivalSpeed="10.08" duration="89.00" routeLength="990.53" waitingTime="3.00" waitingCount="1" stopTime="0.00" timeLoss="15.14" rerouteNo="0" devices="tripinfo_NS_97" vType="car" speedFactor="0.96" vaporized=""/>
    <tripinfo id="WE_95" depart="95.00" departLane="1i_0" departPos="4.10" departSpeed="0.00" departDelay="0.00" arrival="189.00" arrivalLane="2o_0" arrivalPos="492.80" arrivalSpeed="10.97" duration="94.00" routeLength="995.90" waitingTime="2.00" waitingCount="2" stopTime="0.00" timeLoss="29.94" rerouteNo="0" devices="tripinfo_WE_95" vType="car" speedFactor="1.10" vaporized=""/>
    <tripinfo id="WE_75" depart="76.00" departLane="1i_0" departPos="4.10" departSpeed="0.00" departDelay="1.00" arrival="190.00" arrivalLane="4o_0" arrivalPos="492.80" arrivalSpeed="10.36" duration="114.00" routeLength="995.70" waitingTime="7.00" waitingCount="3" stopTime="0.00" timeLoss="43.69" rerouteNo="0" devices="tripinfo_WE_75" vType="car" speedFactor="1.01" vaporized=""/>
    <tripinfo id="EW_108" depart="108.00" departLane="4i_0" departPos="4.10" departSpeed="0.00" departDelay="0.00" arrival="195.00" arrivalLane="1o_0" arrivalPos="492.80" arrivalSpeed="8.86" duration="87.00" routeLength="990.53" waitingTime="0.00" waitingCount="0" stopTime="0.00" timeLoss="8.19" rerouteNo="0" devices="tripinfo_EW_108" vType="car" speedFactor="0.90" vaporized=""/>
    <tripinfo id="SN_120" depart="120.00" departLane="3i_0" departPos="10.10" departSpeed="0.00" departDelay="0.00" arrival="200.00" arrivalLane="2o_0" arrivalPos="492.80" arrivalSpeed="11.31" duration="80.00" routeLength="984.53" waitingTime="0.00" waitingCount="0" stopTime="0.00" timeLoss="12.47" rerouteNo="0" devices="tripinfo_SN_120" vType="truck" speedFactor="1.05" vaporized=""/>
    <tripinfo id="WE_96" depart="98.00" departLane="1i_0" departPos="4.10" departSpeed="0.00" departDelay="2.00" arrival="201.00" arrivalLane="3o_0" arrivalPos="492.80" arrivalSpeed="8.74" duration="103.00" routeLength="990.53" waitingTime="0.00" waitingCount="0" stopTime="0.00" timeLoss="24.94" rerouteNo="0" devices="tripinfo_WE_96" vType="car" speedFactor="0.90" vaporized=""/>
    <tripinfo id="EW_117" depart="117.00" departLane="4i_0" departPos="4.10" departSpeed="0.00" departDelay="0.00" arrival="203.00" arrivalLane="3o_0" arrivalPos="492.80" arrivalSpeed="10.80" duration="86.00" routeLength="995.90" waitingTime="0.00" waitingCount="0" stopTime="0.00" timeLoss="16.10" rerouteNo="0" devices="tripinfo_EW_117" vType="car" speedFactor="1.02" vaporized=""/>
    <tripinfo id="NS_121" depart="121.00" departLane="2i_0" departPos="10.10" departSpeed="0.00" departDelay="0.00" arrival="205.00" arrivalLane="1o_0" arrivalPos="492.80" arrivalSpeed="10.78" duration="84.00" routeLength="989.90" waitingTime="0.00" waitingCount="0" stopTime="0.00" timeLoss="13.42" rerouteNo="0" devices="tripinfo_NS_121" vType="truck" speedFactor="1.00" vaporized=""/>
    <tripinfo id="EW_124" depart="124.00" departLane="4i_0" departPos="4.10" departSpeed="0.00" departDelay="0.00" arrival="205.00" arrivalLane="3o_0" arrivalPos="492.80" arrivalSpeed="10.77" duration="81.00" routeLength="995.90" waitingTime="0.00" waitingCount="0" stopTime="0.00" timeLoss="9.22" rerouteNo="0" devices="tripinfo_EW_124" vType="car" speedFactor="1.00" vaporized=""/>
    <tripinfo id="SN_111" depart="111.00" departLane="3i_0" departPos="4.10" departSpeed="0.00" departDelay="0.00" arrival="206.00" arrivalLane="4o_0" arrivalPos="492.80" arrivalSpeed="8.56" duration="95.00" routeLength="995.90" waitingTime="2.00" waitingCount="1" stopTime="0.00" timeLoss="14.43" rerouteNo="0" devices="tripinfo_SN_111" vType="car" speedFactor="0.88" vaporized=""/>
    <tripinfo id="WE_100" depart="101.00" departLane="1i_0" departPos="4.10" departSpeed="0.00" departDelay="1.00" arrival="207.00" arrivalLane="3o_0" arrivalPos="492.80" arrivalSpeed="10.78" duration="106.00" routeLength="990.53" waitingTime="7.00" waitingCount="1" stopTime="0.00" timeLoss="37.44" rerouteNo="0" devices="tripinfo_WE_100" vType="car" speedFactor="1.04" vaporized=""/>
    <tripinfo id="SN_129" depart="129.00" departLane="3i_0" departPos="4.10" departSpeed="0.00" departDelay="0.00" arrival="209.00" arrivalLane="4o_0" arrivalPos="492.80" arrivalSpeed="11.03" duration="80.00" routeLength="995.90" waitingTime="0.00" waitingCount="0" stopTime="0.00" timeLoss="10.34" rerouteNo="0" devices="tripinfo_SN_129" vType="car" speedFactor="1.02" vaporized=""/>
    <tripinfo id="WE_107" depart="107.00" departLane="1i_0" departPos="4.10" departSpeed="0.00" departDelay="0.00" arrival="219.00" arrivalLane="4o_0" arrivalPos="492.80" arrivalSpeed="10.61" duration="112.00" routeLength="995.70" waitingTime="9.00" waitingCount="2" stopTime="0.00" timeLoss="41.28" rerouteNo="0" devices="tripinfo_WE_107" vType="car" speedFactor="1.00" vaporized=""/>
    <tripinfo id="NS_125" depart="125.00" departLane="2i_0" departPos="4.10" departSpeed="0.00" departDelay="0.00" arrival="219.00" arrivalLane="1o_0" arrivalPos="492.80" arrivalSpeed="9.89" duration="94.00" routeLength="995.90" waitingTime="0.00" waitingCount="0" stopTime="0.00" timeLoss="15.54" rerouteNo="0" devices="tripinfo_NS_125" vType="car" speedFactor="0.90" vaporized=""/>
    <tripinfo id="NS_126" depart="129.00" departLane="2i_0" departPos="4.10" departSpeed="0.00" departDelay="3.00" arrival="221.00" arrivalLane="1o_0" arrivalPos="492.80" arrivalSpeed="11.73" duration="92.00" routeLength="995.90" waitingTime="0.00" waitingCount="0" stopTime="0.00" timeLoss="29.94" rerouteNo="0" devices="tripinfo_NS_126" vType="car" speedFactor="1.14" vaporized=""/>
    <tripinfo id="NS_136" depart="136.00" departLane="2i_0" departPos="4.10" departSpeed="0.00" departDelay="0.00" arrival="223.00" arrivalLane="4o_0" arrivalPos="492.80" arrivalSpeed="11.17" duration="87.00" routeLength="990.53" waitingTime="5.00" waitingCount="2" stopTime="0.00" timeLoss="21.28" rerouteNo="0" devices="tripinfo_NS_136" vType="car" speedFactor="1.08" vaporized=""/>
    <tripinfo id="EW_139" depart="139.00" departLane="4i_0" departPos="4.10" departSpeed="0.00" departDelay="0.00" arrival="223.00" arrivalLane="1o_0" arrivalPos="492.80" arrivalSpeed="10.69" duration="84.00" routeLength="990.53" waitingTime="0.00" waitingCount="0" stopTime="0.00" timeLoss="14.39" rerouteNo="0" devices="tripinfo_EW_139" vType="car" speedFactor="1.02" vaporized=""/>
    <tripinfo id="WE_112" depart="112.00" departLane="1i_0" departPos="4.10" departSpeed="0.00" departDelay="0.00" arrival="235.00" arrivalLane="2o_0" arrivalPos="492.80" arrivalSpeed="8.95" duration="123.00" routeLength="995.90" waitingTime="11.00" waitingCount="3" stopTime="0.00" timeLoss="39.84" rerouteNo="0" devices="tripinfo_WE_112" vType="car" speedFactor="0.85" vaporized=""/>
    <tripinfo id="SN_144" depart="144.00" departLane="3i_0" departPos="4.10" departSpeed="0.00" departDelay="0.00" arrival="237.00" arrivalLane="2o_0" arrivalPos="492.80" arrivalSpeed="9.50" duration="93.00" routeLength="990.53" waitingTime="0.00" waitingCount="0" stopTime="0.00" timeLoss="17.77" rerouteNo="0" devices="tripinfo_SN_144" vType="car" speedFactor="0.94" vaporized=""/>
    <tripinfo id="WE_115" depart="115.00" departLane="1i_0" departPos="4.10" departSpeed="0.00" departDelay="0.00" arrival="239.00" arrivalLane="3o_0" arrivalPos="492.80" arrivalSpeed="9.14" duration="124.00" routeLength="990.53" waitingTime="10.00" waitingCount="3" stopTime="0.00" timeLoss="41.52" rerouteNo="0" devices="tripinfo_WE_115" vType="car" speedFactor="0.85" vaporized=""/>
    <tripinfo id="WE_130" depart="130.00" departLane="1i_0" departPos="4.10" departSpeed="0.00" departDelay="0.00" arrival="239.00" arrivalLane="2o_0" arrivalPos="492.80" arrivalSpeed="10.45" duration="109.00" routeLength="995.90" waitingTime="1.00" waitingCount="1" stopTime="0.00" timeLoss="35.48" rerouteNo="0" devices="tripinfo_WE_130" vType="car" speedFactor="0.97" vaporized=""/>
    <tripinfo id="NS_163" depart="163.00" departLane="2i_0" departPos="4.10" departSpeed="0.00" departDelay="0.00" arrival="240.00" arrivalLane="1o_0" arrivalPos="492.80" arrivalSpeed="11.22" duration="77.00" routeLength="995.90" waitingTime="0.00" waitingCount="0" stopTime="0.00" timeLoss="7.89" rerouteNo="0" devices="tripinfo_NS_163" vType="car" speedFactor="1.02" vaporized=""/>
    <tripinfo id="WE_116" depart="118.00" departLane="1i_0" departPos="4.10" departSpeed="0.00" departDelay="2.00" arrival="241.00" arrivalLane="3o_0" arrivalPos="492.80" arrivalSpeed="12.48" duration="123.00" routeLength="990.53" waitingTime="6.00" waitingCount="3" stopTime="0.00" timeLoss="62.09" rerouteNo="0" devices="tripinfo_WE_116" vType="car" speedFactor="1.17" vaporized=""/>
    <tripinfo id="WE_141" depart="143.00" departLane="1i_0" departPos="4.10" departSpeed="0.00" departDelay="2.00" arrival="241.00" arrivalLane="2o_0" arrivalPos="492.80" arrivalSpeed="10.37" duration="98.00" routeLength="995.90" waitingTime="1.00" waitingCount="1" stopTime="0.00" timeLoss="25.59" rerouteNo="0" devices="tripinfo_WE_141" vType="car" speedFactor="0.99" vaporized=""/>
    <tripinfo id="WE_138" depart="140.00" departLane="1i_0" departPos="4.10" departSpeed="0.00" departDelay="2.00" arrival="242.00" arrivalLane="3o_0" arrivalPos="492.80" arrivalSpeed="11.46" duration="102.00" routeLength="990.53" waitingTime="1.00" waitingCount="1" stopTime="0.00" timeLoss="38.93" rerouteNo="0" devices="tripinfo_WE_138" vType="car" speedFactor="1.12" vaporized=""/>
    <tripinfo id="WE_153" depart="153.00" departLane="1i_0" departPos="4.10" departSpeed="0.00" departDelay="0.00" arrival="246.00" arrivalLane="3o_0" arrivalPos="492.80" arrivalSpeed="9.44" duration="93.00" routeLength="990.53" waitingTime="0.00" waitingCount="0" stopTime="0.00" timeLoss="12.87" rerouteNo="0" devices="tripinfo_WE_153" vType="car" speedFactor="0.88" vaporized=""/>
    <tripinfo id="SN_155" depart="155.00" departLane="3i_0" departPos="10.10" departSpeed="0.00" departDelay="0.00" arrival="246.00" arrivalLane="4o_0" arrivalPos="492.80" arrivalSpeed="10.32" duration="91.00" routeLength="989.90" waitingTime="0.00" waitingCount="0" stopTime="0.00" timeLoss="16.97" rerouteNo="0" devices="tripinfo_SN_155" vType="truck" speedFactor="0.95" vaporized=""/>
    <tripinfo id="WE_158" depart="158.00" departLane="1i_0" departPos="4.10" departSpeed="0.00" departDelay="0.00" arrival="248.00" arrivalLane="3o_0" arrivalPos="492.80" arrivalSpeed="10.69" duration="90.00" routeLength="990.53" waitingTime="0.00" waitingCount="0" stopTime="0.00" timeLoss="21.61" rerouteNo="0" devices="tripinfo_WE_158" vType="car" speedFactor="1.04" vaporized=""/>
    <tripinfo id="NS_168" depart="168.00" departLane="2i_0" departPos="4.10" departSpeed="0.00" departDelay="0.00" arrival="249.00" arrivalLane="1o_0" arrivalPos="492.80" arrivalSpeed="10.84" duration="81.00" routeLength="995.90" waitingTime="0.00" waitingCount="0" stopTime="0.00" timeLoss="11.04" rerouteNo="0" devices="tripinfo_NS_168" vType="car" speedFactor="1.02" vaporized=""/>
    <tripinfo id="EW_156" depart="156.00" departLane="4i_0" departPos="4.10" departSpeed="0.00" departDelay="0.00" arrival="254.00" arrivalLane="2o_0" arrivalPos="492.80" arrivalSpeed="9.74" duration="98.00" routeLength="995.70" waitingTime="4.00" waitingCount="2" stopTime="0.00" timeLoss="20.11" rerouteNo="0" devices="tripinfo_EW_156" vType="car" speedFactor="0.91" vaporized=""/>
    <tripinfo id="SN_171" depart="171.00" departLane="3i_0" departPos="4.10" departSpeed="0.00" departDelay="0.00" arrival="256.00" arrivalLane="2o_0" arrivalPos="492.80" arrivalSpeed="10.59" duration="85.00" routeLength="990.53" waitingTime="0.00" waitingCount="0" stopTime="0.00" timeLoss="11.94" rerouteNo="0" devices="tripinfo_SN_171" vType="car" speedFactor="0.97" vaporized=""/>
    <tripinfo id="EW_174" depart="177.00" departLane="4i_0" departPos="4.10" departSpeed="0.00" departDelay="3.00" arrival="267.00" arrivalLane="3o_0" arrivalPos="492.80" arrivalSpeed="10.35" duration="90.00" routeLength="995.90" waitingTime="3.00" waitingCount="1" stopTime="0.00" timeLoss="13.96" rerouteNo="0" devices="tripinfo_EW_174" vType="car" speedFactor="0.94" vaporized=""/>
    <tripinfo id="EW_175" depart="181.00" departLane="4i_0" departPos="4.10" departSpeed="0.00" departDelay="6.00" arrival="268.00" arrivalLane="3o_0" arrivalPos="492.80" arrivalSpeed="10.85" duration="87.00" routeLength="995.90" waitingTime="0.00" waitingCount="0" stopTime="0.00" timeLoss="20.06" rerouteNo="0" devices="tripinfo_EW_175" vType="car" speedFactor="1.06" vaporized=""/>
    <tripinfo id="NS_188" depart="189.00" departLane="2i_0" departPos="4.10" departSpeed="0.00" departDelay="1.00" arrival="272.00" arrivalLane="4o_0" arrivalPos="492.80" arrivalSpeed="10.28" duration="83.00" routeLength="990.53" waitingTime="0.00" waitingCount="0" stopTime="0.00" timeLoss="8.77" rerouteNo="0" devices="tripinfo_NS_188" vType="car" speedFactor="0.96" vaporized=""/>
    <tripinfo id="SN_189" depart="189.00" departLane="3i_0" departPos="4.10" departSpeed="0.00" departDelay="0.00" arrival="274.00" arrivalLane="4o_0" arrivalPos="492.80" arrivalSpeed="10.18" duration="85.00" routeLength="995.90" waitingTime="1.00" waitingCount="1" stopTime="0.00" timeLoss="12.30" rerouteNo="0" devices="tripinfo_SN_189" vType="car" speedFactor="0.98" vaporized=""/>