<?xml version="1.0" encoding="UTF-8"?>

<!-- generated on 2024-05-04 21:15:48 by Eclipse SUMO sumo Version 1.19.0
<configuration xmlns:xsi="http://www.w3.org/2001/XMLSchema-instance" xsi:noNamespaceSchemaLocation="http://sumo.dlr.de/xsd/sumoConfiguration.xsd">

    <input>
        <net-file value="test5.net.xml"/>
        <route-files value="route_gen.rou.xml"/>
    </input>

    <output>
        <tripinfo-output value="tripinfo_epi983.xml"/>
    </output>

    <report>
        <no-warnings value="true"/>
    </report>

    <traci_server>
        <remote-port value="41505"/>
    </traci_server>

</configuration>
-->

<tripinfos xmlns:xsi="http://www.w3.org/2001/XMLSchema-instance" xsi:noNamespaceSchemaLocation="http://sumo.dlr.de/xsd/tripinfo_file.xsd">
    <tripinfo id="WE_2" depart="2.00" departLane="1i_0" departPos="4.10" departSpeed="0.00" departDelay="0.00" arrival="82.00" arrivalLane="4o_0" arrivalPos="492.80" arrivalSpeed="11.11" duration="80.00" routeLength="995.70" waitingTime="0.00" waitingCount="0" stopTime="0.00" timeLoss="12.58" rerouteNo="0" devices="tripinfo_WE_2" vType="car" speedFactor="1.06" vaporized=""/>
    <tripinfo id="NS_4" depart="4.00" departLane="2i_0" departPos="4.10" departSpeed="0.00" departDelay="0.00" arrival="84.00" arrivalLane="3o_0" arrivalPos="492.80" arrivalSpeed="11.21" duration="80.00" routeLength="995.70" waitingTime="0.00" waitingCount="0" stopTime="0.00" timeLoss="9.95" rerouteNo="0" devices="tripinfo_NS_4" vType="car" speedFactor="1.01" vaporized=""/>
    <tripinfo id="NS_6" depart="7.00" departLane="2i_0" departPos="4.10" departSpeed="0.00" departDelay="1.00" arrival="85.00" arrivalLane="1o_0" arrivalPos="492.80" arrivalSpeed="10.89" duration="78.00" routeLength="995.90" waitingTime="0.00" waitingCount="0" stopTime="0.00" timeLoss="12.18" rerouteNo="0" devices="tripinfo_NS_6" vType="car" speedFactor="1.08" vaporized=""/>
    <tripinfo id="SN_3" depart="3.00" departLane="3i_0" departPos="4.10" departSpeed="0.00" departDelay="0.00" arrival="86.00" arrivalLane="2o_0" arrivalPos="492.80" arrivalSpeed="9.61" duration="83.00" routeLength="990.53" waitingTime="0.00" waitingCount="0" stopTime="0.00" timeLoss="7.38" rerouteNo="0" devices="tripinfo_SN_3" vType="car" speedFactor="0.94" vaporized=""/>
    <tripinfo id="NS_11" depart="12.00" departLane="2i_0" departPos="4.10" departSpeed="0.00" departDelay="1.00" arrival="103.00" arrivalLane="3o_0" arrivalPos="492.80" arrivalSpeed="9.46" duration="91.00" routeLength="995.70" waitingTime="1.00" waitingCount="1" stopTime="0.00" timeLoss="11.19" rerouteNo="0" devices="tripinfo_NS_11" vType="car" speedFactor="0.89" vaporized=""/>
    <tripinfo id="NS_9" depart="10.00" departLane="2i_0" departPos="4.10" departSpeed="0.00" departDelay="1.00" arrival="104.00" arrivalLane="4o_0" arrivalPos="492.80" arrivalSpeed="9.16" duration="94.00" routeLength="990.53" waitingTime="0.00" waitingCount="0" stopTime="0.00" timeLoss="9.36" rerouteNo="0" devices="tripinfo_NS_9" vType="car" speedFactor="0.83" vaporized=""/>
    <tripinfo id="NS_14" depart="16.00" departLane="2i_0" departPos="4.10" departSpeed="0.00" departDelay="2.00" arrival="106.00" arrivalLane="4o_0" arrivalPos="492.80" arrivalSpeed="9.49" duration="90.00" routeLength="990.53" waitingTime="0.00" waitingCount="0" stopTime="0.00" timeLoss="14.52" rerouteNo="0" devices="tripinfo_NS_14" vType="car" speedFactor="0.94" vaporized=""/>
    <tripinfo id="WE_20" depart="20.00" departLane="1i_0" departPos="4.10" departSpeed="0.00" departDelay="0.00" arrival="108.00" arrivalLane="4o_0" arrivalPos="492.80" arrivalSpeed="11.49" duration="88.00" routeLength="995.70" waitingTime="0.00" waitingCount="0" stopTime="0.00" timeLoss="22.56" rerouteNo="0" devices="tripinfo_WE_20" vType="car" speedFactor="1.09" vaporized=""/>
    <tripinfo id="EW_9" depart="9.00" departLane="4i_0" departPos="10.10" departSpeed="0.00" departDelay="0.00" arrival="111.00" arrivalLane="2o_0" arrivalPos="492.80" arrivalSpeed="10.90" duration="102.00" routeLength="989.70" waitingTime="6.00" waitingCount="2" stopTime="0.00" timeLoss="32.07" rerouteNo="0" devices="tripinfo_EW_9" vType="truck" speedFactor="1.02" vaporized=""/>
    <tripinfo id="NS_18" depart="19.00" departLane="2i_0" departPos="4.10" departSpeed="0.00" departDelay="1.00" arrival="111.00" arrivalLane="1o_0" arrivalPos="492.80" arrivalSpeed="9.05" duration="92.00" routeLength="995.90" waitingTime="0.00" waitingCount="0" stopTime="0.00" timeLoss="9.48" rerouteNo="0" devices="tripinfo_NS_18" vType="car" speedFactor="0.86" vaporized=""/>
    <tripinfo id="NS_21" depart="21.00" departLane="2i_0" departPos="4.10" departSpeed="0.00" departDelay="0.00" arrival="113.00" arrivalLane="1o_0" arrivalPos="492.80" arrivalSpeed="10.17" duration="92.00" routeLength="995.90" waitingTime="0.00" waitingCount="0" stopTime="0.00" timeLoss="22.77" rerouteNo="0" devices="tripinfo_NS_21" vType="car" speedFactor="1.03" vaporized=""/>
    <tripinfo id="WE_29" depart="29.00" departLane="1i_0" departPos="10.10" departSpeed="0.00" departDelay="0.00" arrival="113.00" arrivalLane="2o_0" arrivalPos="492.80" arrivalSpeed="11.18" duration="84.00" routeLength="989.90" waitingTime="0.00" waitingCount="0" stopTime="0.00" timeLoss="14.87" rerouteNo="0" devices="tripinfo_WE_29" vType="truck" speedFactor="1.02" vaporized=""/>
    <tripinfo id="NS_30" depart="30.00" departLane="2i_0" departPos="4.10" departSpeed="0.00" departDelay="0.00" arrival="113.00" arrivalLane="3o_0" arrivalPos="492.80" arrivalSpeed="11.22" duration="83.00" routeLength="995.70" waitingTime="4.00" waitingCount="1" stopTime="0.00" timeLoss="19.66" rerouteNo="0" devices="tripinfo_NS_30" vType="car" speedFactor="1.12" vaporized=""/>
    <tripinfo id="EW_11" depart="13.00" departLane="4i_0" departPos="4.10" departSpeed="0.00" departDelay="2.00" arrival="115.00" arrivalLane="1o_0" arrivalPos="492.80" arrivalSpeed="10.85" duration="102.00" routeLength="990.53" waitingTime="5.00" waitingCount="2" stopTime="0.00" timeLoss="34.15" rerouteNo="0" devices="tripinfo_EW_11" vType="car" speedFactor="1.05" vaporized=""/>
    <tripinfo id="NS_31" depart="33.00" departLane="2i_0" departPos="4.10" departSpeed="0.00" departDelay="2.00" arrival="130.00" arrivalLane="3o_0" arrivalPos="492.80" arrivalSpeed="9.89" duration="97.00" routeLength="995.70" waitingTime="9.00" waitingCount="3" stopTime="0.00" timeLoss="25.47" rerouteNo="0" devices="tripinfo_NS_31" vType="car" speedFactor="0.99" vaporized=""/>
    <tripinfo id="WE_39" depart="39.00" departLane="1i_0" departPos="4.10" departSpeed="0.00" departDelay="0.00" arrival="131.00" arrivalLane="2o_0" arrivalPos="492.80" arrivalSpeed="9.85" duration="92.00" routeLength="995.90" waitingTime="1.00" waitingCount="1" stopTime="0.00" timeLoss="14.98" rerouteNo="0" devices="tripinfo_WE_39" vType="car" speedFactor="0.93" vaporized=""/>
    <tripinfo id="SN_54" depart="54.00" departLane="3i_0" departPos="4.10" departSpeed="0.00" departDelay="0.00" arrival="132.00" arrivalLane="2o_0" arrivalPos="492.80" arrivalSpeed="10.17" duration="78.00" routeLength="990.53" waitingTime="0.00" waitingCount="0" stopTime="0.00" timeLoss="8.89" rerouteNo="0" devices="tripinfo_SN_54" vType="car" speedFactor="1.02" vaporized=""/>
    <tripinfo id="EW_51" depart="51.00" departLane="4i_0" departPos="4.10" departSpeed="0.00" departDelay="0.00" arrival="134.00" arrivalLane="2o_0" arrivalPos="492.80" arrivalSpeed="12.06" duration="83.00" routeLength="995.70" waitingTime="3.00" waitingCount="1" stopTime="0.00" timeLoss="21.66" rerouteNo="0" devices="tripinfo_EW_51" vType="car" speedFactor="1.16" vaporized=""/>
    <tripinfo id="WE_42" depart="42.00" departLane="1i_0" departPos="4.10" departSpeed="0.00" departDelay="0.00" arrival="136.00" arrivalLane="4o_0" arrivalPos="492.80" arrivalSpeed="9.57" duration="94.00" routeLength="995.70" waitingTime="3.00" waitingCount="1" stopTime="0.00" timeLoss="18.78" rerouteNo="0" devices="tripinfo_WE_42" vType="car" speedFactor="0.94" vaporized=""/>
    <tripinfo id="NS_41" depart="41.00" departLane="2i_0" departPos="4.10" departSpeed="0.00" departDelay="0.00" arrival="139.00" arrivalLane="3o_0" arrivalPos="492.80" arrivalSpeed="9.03" duration="98.00" routeLength="995.70" waitingTime="1.00" waitingCount="1" stopTime="0.00" timeLoss="17.37" rerouteNo="0" devices="tripinfo_NS_41" vType="car" speedFactor="0.88" vaporized=""/>
    <tripinfo id="NS_50" depart="50.00" departLane="2i_0" departPos="4.10" departSpeed="0.00" departDelay="0.00" arrival="140.00" arrivalLane="4o_0" arrivalPos="492.80" arrivalSpeed="9.16" duration="90.00" routeLength="990.53" waitingTime="1.00" waitingCount="1" stopTime="0.00" timeLoss="14.54" rerouteNo="0" devices="tripinfo_NS_50" vType="car" speedFactor="0.94" vaporized=""/>
    <tripinfo id="EW_59" depart="59.00" departLane="4i_0" departPos="4.10" departSpeed="0.00" departDelay="0.00" arrival="142.00" arrivalLane="3o_0" arrivalPos="492.80" arrivalSpeed="10.29" duration="83.00" routeLength="995.90" waitingTime="2.00" waitingCount="1" stopTime="0.00" timeLoss="12.36" rerouteNo="0" devices="tripinfo_EW_59" vType="car" speedFactor="1.01" vaporized=""/>
    <tripinfo id="NS_66" depart="66.00" departLane="2i_0" departPos="4.10" departSpeed="0.00" departDelay="0.00" arrival="148.00" arrivalLane="1o_0" arrivalPos="492.80" arrivalSpeed="9.61" duration="82.00" routeLength="995.90" waitingTime="0.00" waitingCount="0" stopTime="0.00" timeLoss="9.02" rerouteNo="0" devices="tripinfo_NS_66" vType="car" speedFactor="0.97" vaporized=""/>
    <tripinfo id="EW_68" depart="68.00" departLane="4i_0" departPos="4.10" departSpeed="0.00" departDelay="0.00" arrival="159.00" arrivalLane="2o_0" arrivalPos="492.80" arrivalSpeed="9.74" duration="91.00" routeLength="995.70" waitingTime="0.00" waitingCount="0" stopTime="0.00" timeLoss="11.03" rerouteNo="0" devices="tripinfo_EW_68" vType="car" speedFactor="0.89" vaporized=""/>
    <tripinfo id="SN_71" depart="71.00" departLane="3i_0" departPos="4.10" departSpeed="0.00" departDelay="0.00" arrival="164.00" arrivalLane="2o_0" arrivalPos="492.80" arrivalSpeed="9.41" duration="93.00" routeLength="990.53" waitingTime="1.00" waitingCount="1" stopTime="0.00" timeLoss="12.50" rerouteNo="0" devices="tripinfo_SN_71" vType="car" speedFactor="0.87" vaporized=""/>
    <tripinfo id="EW_82" depart="85.00" departLane="4i_0" departPos="4.10" departSpeed="0.00" departDelay="3.00" arrival="170.00" arrivalLane="1o_0" arrivalPos="492.80" arrivalSpeed="9.74" duration="85.00" routeLength="990.53" waitingTime="0.00" waitingCount="0" stopTime="0.00" timeLoss="9.33" rerouteNo="0" devices="tripinfo_EW_82" vType="car" speedFactor="0.93" vaporized=""/>
    <tripinfo id="NS_98" depart="98.00" departLane="2i_0" departPos="4.10" departSpeed="0.00" departDelay="0.00" arrival="170.00" arrivalLane="3o_0" arrivalPos="492.80" arrivalSpeed="12.03" duration="72.00" routeLength="995.70" waitingTime="0.00" waitingCount="0" stopTime="0.00" timeLoss="11.14" rerouteNo="0" devices="tripinfo_NS_98" vType="car" speedFactor="1.17" vaporized=""/>
    <tripinfo id="EW_70" depart="70.00" departLane="4i_0" departPos="4.10" departSpeed="0.00" departDelay="0.00" arrival="172.00" arrivalLane="2o_0" arrivalPos="492.80" arrivalSpeed="8.67" duration="102.00" routeLength="995.70" waitingTime="0.00" waitingCount="0" stopTime="0.00" timeLoss="15.77" rerouteNo="0" devices="tripinfo_EW_70" vType="car" speedFactor="0.83" vaporized=""/>
    <tripinfo id="SN_76" depart="76.00" departLane="3i_0" departPos="4.10" departSpeed="0.00" departDelay="0.00" arrival="173.00" arrivalLane="2o_0" arrivalPos="492.80" arrivalSpeed="9.99" duration="97.00" routeLength="990.53" waitingTime="0.00" waitingCount="0" stopTime="0.00" timeLoss="20.35" rerouteNo="0" devices="tripinfo_SN_76" vType="car" speedFactor="0.92" vaporized=""/>
    <tripinfo id="EW_81" depart="82.00" departLane="4i_0" departPos="4.10" departSpeed="0.00" departDelay="1.00" arrival="175.00" arrivalLane="2o_0" arrivalPos="492.80" arrivalSpeed="11.61" duration="93.00" routeLength="995.70" waitingTime="0.00" waitingCount="0" stopTime="0.00" timeLoss="30.28" rerouteNo="0" devices="tripinfo_EW_81" vType="car" speedFactor="1.13" vaporized=""/>
    <tripinfo id="SN_78" depart="79.00" departLane="3i_0" departPos="4.10" departSpeed="0.00" departDelay="1.00" arrival="177.00" arrivalLane="2o_0" arrivalPos="492.80" arrivalSpeed="9.77" duration="98.00" routeLength="990.53" waitingTime="1.00" waitingCount="1" stopTime="0.00" timeLoss="23.60" rerouteNo="0" devices="tripinfo_SN_78" vType="car" speedFactor="0.95" vaporized=""/>
    <tripinfo id="EW_88" depart="88.00" departLane="4i_0" departPos="4.10" departSpeed="0.00" departDelay="0.00" arrival="179.00" arrivalLane="2o_0" arrivalPos="492.80" arrivalSpeed="12.88" duration="91.00" routeLength="995.70" waitingTime="0.00" waitingCount="0" stopTime="0.00" timeLoss="30.17" rerouteNo="0" devices="tripinfo_EW_88" vType="car" speedFactor="1.18" vaporized=""/>
    <tripinfo id="SN_97" depart="97.00" departLane="3i_0" departPos="4.10" departSpeed="0.00" departDelay="0.00" arrival="181.00" arrivalLane="4o_0" arrivalPos="492.80" arrivalSpeed="10.71" duration="84.00" routeLength="995.90" waitingTime="1.00" waitingCount="1" stopTime="0.00" timeLoss="12.68" rerouteNo="0" devices="tripinfo_SN_97" vType="car" speedFactor="1.01" vaporized=""/>
    <tripinfo id="EW_91" depart="92.00" departLane="4i_0" departPos="10.10" departSpeed="0.00" departDelay="1.00" arrival="183.00" arrivalLane="2o_0" arrivalPos="492.80" arrivalSpeed="11.67" duration="91.00" routeLength="989.70" waitingTime="2.00" waitingCount="1" stopTime="0.00" timeLoss="24.04" rerouteNo="0" devices="tripinfo_EW_91" vType="truck" speedFactor="1.08" vaporized=""/>
    <tripinfo id="SN_107" depart="107.00" departLane="3i_0" departPos="4.10" departSpeed="0.00" departDelay="0.00" arrival="183.00" arrivalLane="1o_0" arrivalPos="492.80" arrivalSpeed="11.78" duration="76.00" routeLength="995.70" waitingTime="0.00" waitingCount="0" stopTime="0.00" timeLoss="11.85" rerouteNo="0" devices="tripinfo_SN_107" vType="car" speedFactor="1.10" vaporized=""/>
    <tripinfo id="WE_106" depart="106.00" departLane="1i_0" departPos="4.10" departSpeed="0.00" departDelay="0.00" arrival="187.00" arrivalLane="3o_0" arrivalPos="492.80" arrivalSpeed="10.28" duration="81.00" routeLength="990.53" waitingTime="0.00" waitingCount="0" stopTime="0.00" timeLoss="12.17" rerouteNo="0" devices="tripinfo_WE_106" vType="car" speedFactor="1.02" vaporized=""/>
    <tripinfo id="WE_107" depart="109.00" departLane="1i_0" departPos="4.10" departSpeed="0.00" departDelay="2.00" arrival="189.00" arrivalLane="3o_0" arrivalPos="492.80" arrivalSpeed="12.03" duration="80.00" routeLength="990.53" waitingTime="0.00" waitingCount="0" stopTime="0.00" timeLoss="20.09" rerouteNo="0" devices="tripinfo_WE_107" vType="car" speedFactor="1.18" vaporized=""/>
    <tripinfo id="EW_99" depart="99.00" departLane="4i_0" departPos="4.10" departSpeed="0.00" departDelay="0.00" arrival="190.00" arrivalLane="2o_0" arrivalPos="492.80" arrivalSpeed="9.84" duration="91.00" routeLength="995.70" waitingTime="1.00" waitingCount="1" stopTime="0.00" timeLoss="19.70" rerouteNo="0" devices="tripinfo_EW_99" vType="car" speedFactor="0.99" vaporized=""/>
    <tripinfo id="NS_110" depart="113.00" departLane="2i_0" departPos="4.10" departSpeed="0.00" departDelay="3.00" arrival="192.00" arrivalLane="1o_0" arrivalPos="492.80" arrivalSpeed="11.02" duration="79.00" routeLength="995.90" waitingTime="0.00" waitingCount="0" stopTime="0.00" timeLoss="10.43" rerouteNo="0" devices="tripinfo_NS_110" vType="car" speedFactor="1.03" vaporized=""/>
    <tripinfo id="EW_106" depart="106.00" departLane="4i_0" departPos="4.10" departSpeed="0.00" departDelay="0.00" arrival="194.00" arrivalLane="3o_0" arrivalPos="492.80" arrivalSpeed="10.27" duration="88.00" routeLength="995.90" waitingTime="0.00" waitingCount="0" stopTime="0.00" timeLoss="15.18" rerouteNo="0" devices="tripinfo_EW_106" vType="car" speedFactor="0.97" vaporized=""/>
    <tripinfo id="NS_114" depart="116.00" departLane="2i_0" departPos="4.10" departSpeed="0.00" departDelay="2.00" arrival="194.00" arrivalLane="1o_0" arrivalPos="492.80" arrivalSpeed="11.12" duration="78.00" routeLength="995.90" waitingTime="0.00" waitingCount="0" stopTime="0.00" timeLoss="13.04" rerouteNo="0" devices="tripinfo_NS_114" vType="car" speedFactor="1.09" vaporized=""/>
    <tripinfo id="EW_115" depart="115.00" departLane="4i_0" departPos="4.10" departSpeed="0.00" departDelay="0.00" arrival="198.00" arrivalLane="2o_0" arrivalPos="492.80" arrivalSpeed="10.68" duration="83.00" routeLength="995.70" waitingTime="0.00" waitingCount="0" stopTime="0.00" timeLoss="14.21" rerouteNo="0" devices="tripinfo_EW_115" vType="car" speedFactor="1.04" vaporized=""/>
    <tripinfo id="EW_116" depart="118.00" departLane="4i_0" departPos="4.10" departSpeed="0.00" departDelay="2.00" arrival="199.00" arrivalLane="2o_0" arrivalPos="492.80" arrivalSpeed="11.41" duration="81.00" routeLength="995.70" waitingTime="0.00" waitingCount="0" stopTime="0.00" timeLoss="13.30" rerouteNo="0" devices="tripinfo_EW_116" vType="car" speedFactor="1.04" vaporized=""/>
    <tripinfo id="SN_117" depart="117.00" departLane="3i_0" departPos="4.10" departSpeed="0.00" departDelay="0.00" arrival="199.00" arrivalLane="1o_0" arrivalPos="492.80" arrivalSpeed="11.60" duration="82.00" routeLength="995.70" waitingTime="3.00" waitingCount="1" stopTime="0.00" timeLoss="16.21" rerouteNo="0" devices="tripinfo_SN_117" vType="car" speedFactor="1.09" vaporized=""/>
    <tripinfo id="WE_108" depart="115.00" departLane="1i_0" departPos="4.10" departSpeed="0.00" departDelay="7.00" arrival="211.00" arrivalLane="2o_0" arrivalPos="492.80" arrivalSpeed="9.59" duration="96.00" routeLength="995.90" waitingTime="2.00" waitingCount="1" stopTime="0.00" timeLoss="16.81" rerouteNo="0" devices="tripinfo_WE_108" vType="car" speedFactor="0.90" vaporized=""/>
    <tripinfo id="EW_120" depart="121.00" departLane="4i_0" departPos="4.10" departSpeed="0.00" departDelay="1.00" arrival="212.00" arrivalLane="2o_0" arrivalPos="492.80" arrivalSpeed="10.58" duration="91.00" routeLength="995.70" waitingTime="0.00" waitingCount="0" stopTime="0.00" timeLoss="20.08" rerouteNo="0" devices="tripinfo_EW_120" vType="car" speedFactor="1.00" vaporized=""/>
    <tripinfo id="WE_111" depart="118.00" departLane="1i_0" departPos="4.10" departSpeed="0.00" departDelay="7.00" arrival="214.00" arrivalLane="2o_0" arrivalPos="492.80" arrivalSpeed="10.08" duration="96.00" routeLength="995.90" waitingTime="2.00" waitingCount="2" stopTime="0.00" timeLoss="22.04" rerouteNo="0" devices="tripinfo_WE_111" vType="car" speedFactor="0.96" vaporized=""/>
    <tripinfo id="SN_122" depart="122.00" departLane="3i_0" departPos="4.10" departSpeed="0.00" departDelay="0.00" arrival="224.00" arrivalLane="2o_0" arrivalPos="492.80" arrivalSpeed="9.65" duration="102.00" routeLength="990.53" waitingTime="8.00" waitingCount="3" stopTime="0.00" timeLoss="23.30" rerouteNo="0" devices="tripinfo_SN_122" vType="car" speedFactor="0.90" vaporized=""/>
    <tripinfo id="EW_131" depart="131.00" departLane="4i_0" departPos="4.10" departSpeed="0.00" departDelay="0.00" arrival="225.00" arrivalLane="3o_0" arrivalPos="492.80" arrivalSpeed="8.89" duration="94.00" routeLength="995.90" waitingTime="1.00" waitingCount="1" stopTime="0.00" timeLoss="13.09" rerouteNo="0" devices="tripinfo_EW_131" vType="car" speedFactor="0.88" vaporized=""/>
    <tripinfo id="EW_152" depart="152.00" departLane="4i_0" departPos="4.10" departSpeed="0.00" departDelay="0.00" arrival="227.00" arrivalLane="3o_0" arrivalPos="492.80" arrivalSpeed="12.83" duration="75.00" routeLength="995.90" waitingTime="0.00" waitingCount="0" stopTime="0.00" timeLoss="13.62" rerouteNo="0" devices="tripinfo_EW_152" vType="car" speedFactor="1.17" vaporized=""/>
    <tripinfo id="EW_139" depart="140.00" departLane="4i_0" departPos="4.10" departSpeed="0.00" departDelay="1.00" arrival="234.00" arrivalLane="1o_0" arrivalPos="492.80" arrivalSpeed="9.04" duration="94.00" routeLength="990.53" waitingTime="1.00" waitingCount="1" stopTime="0.00" timeLoss="11.07" rerouteNo="0" devices="tripinfo_EW_139" vType="car" speedFactor="0.85" vaporized=""/>
    <tripinfo id="EW_140" depart="143.00" departLane="4i_0" departPos="4.10" departSpeed="0.00" departDelay="3.00" arrival="236.00" arrivalLane="1o_0" arrivalPos="492.80" arrivalSpeed="8.35" duration="93.00" routeLength="990.53" waitingTime="0.00" waitingCount="0" stopTime="0.00" timeLoss="10.48" rerouteNo="0" devices="tripinfo_EW_140" vType="car" speedFactor="0.85" vaporized=""/>
    <tripinfo id="SN_154" depart="154.00" departLane="3i_0" departPos="10.10" departSpeed="0.00" departDelay="0.00" arrival="241.00" arrivalLane="1o_0" arrivalPos="492.80" arrivalSpeed="10.62" duration="87.00" routeLength="989.70" waitingTime="0.00" waitingCount="0" stopTime="0.00" timeLoss="16.83" rerouteNo="0" devices="tripinfo_SN_154" vType="truck" speedFactor="1.01" vaporized=""/>
    <tripinfo id="WE_162" depart="162.00" departLane="1i_0" departPos="4.10" departSpeed="0.00" departDelay="0.00" arrival="241.00" arrivalLane="3o_0" arrivalPos="492.80" arrivalSpeed="11.33" duration="79.00" routeLength="990.53" waitingTime="4.00" waitingCount="1" stopTime="0.00" timeLoss="14.72" rerouteNo="0" devices="tripinfo_WE_162" vType="car" speedFactor="1.10" vaporized=""/>
    <tripinfo id="NS_163" depart="164.00" departLane="2i_0" departPos="4.10" departSpeed="0.00" departDelay="1.00" arrival="248.00" arrivalLane="3o_0" arrivalPos="492.80" arrivalSpeed="10.43" duration="84.00" routeLength="995.70" waitingTime="0.00" waitingCount="0" stopTime="0.00" timeLoss="13.31" rerouteNo="0" devices="tripinfo_NS_163" vType="car" speedFactor="1.00" vaporized=""/>
    <tripinfo id="WE_167" depart="167.00" departLane="1i_0" departPos="4.10" departSpeed="0.00" departDelay="0.00" arrival="252.00" arrivalLane="2o_0" arrivalPos="492.80" arrivalSpeed="10.47" duration="85.00" routeLength="995.90" waitingTime="0.00" waitingCount="0" stopTime="0.00" timeLoss="13.78" rerouteNo="0" devices="tripinfo_WE_167" vType="car" speedFactor="1.00" vaporized=""/>
    <tripinfo id="SN_178" depart="178.00" departLane="3i_0" departPos="4.10" departSpeed="0.00" departDelay="0.00" arrival="254.00" arrivalLane="2o_0" arrivalPos="492.80" arrivalSpeed="11.88" duration="76.00" routeLength="990.53" waitingTime="0.00" waitingCount="0" stopTime="0.00" timeLoss="13.65" rerouteNo="0" devices="tripinfo_SN_178" vType="car" speedFactor="1.14" vaporized=""/>
    <tripinfo id="EW_170" depart="170.00" departLane="4i_0" departPos="4.10" departSpeed="0.00" departDelay="0.00" arrival="259.00" arrivalLane="3o_0" arrivalPos="492.80" arrivalSpeed="8.99" duration="89.00" routeLength="995.90" waitingTime="0.00" waitingCount="0" stopTime="0.00" timeLoss="10.22" rerouteNo="0" devices="tripinfo_EW_170" vType="car" speedFactor="0.90" vaporized=""/>
    <tripinfo id="SN_186" depart="187.00" departLane="3i_0" departPos="4.10" departSpeed="0.00" departDelay="1.00" arrival="261.00" arrivalLane="4o_0" arrivalPos="492.80" arrivalSpeed="11.55" duration="74.00" routeLength="995.90" waitingTime="0.00" waitingCount="0" stopTime="0.00" timeLoss="8.00" rerouteNo="0" devices="tripinfo_SN_186" vType="car" speedFactor="1.08" vaporized=""/>
    <tripinfo id="EW_181" depart="181.00" departLane="4i_0" departPos="4.10" departSpeed="0.00" departDelay="0.00" arrival="263.00" arrivalLane="1o_0" arrivalPos="492.80" arrivalSpeed="10.74" duration="82.00" routeLength="990.53" waitingTime="2.00" waitingCount="1" stopTime="0.00" timeLoss="12.37" rerouteNo="0" devices="tripinfo_EW_181" vType="car" speedFactor="1.02" vaporized=""/>
    <tripinfo id="EW_185" depart="185.00" departLane="4i_0" departPos="4.10" departSpeed="0.00" departDelay="0.00" arrival="269.00" arrivalLane="1o_0" arrivalPos="492.80" arrivalSpeed="9.74" duration="84.00" routeLength="990.53" waitingTime="0.00" waitingCount="0" stopTime="0.00" timeLoss="11.55" rerouteNo="0" devices="tripinfo_EW_185" vType="car" speedFactor="0.97" vaporized=""/>
    <tripinfo id="NS_189" depart="190.00" departLane="2i_0" departPos="4.10" departSpeed="0.00" departDelay="1.00" arrival="271.00" arrivalLane="1o_0" arrivalPos="492.80" arrivalSpeed="12.21" duration="81.00" routeLength="995.90" waitingTime="1.00" waitingCount="1" stopTime="0.00" timeLoss="17.12" rerouteNo="0" devices="tripinfo_NS_189" vType="car" speedFactor="1.12" vaporized=""/>
    <tripinfo id="WE_192" depart="192.00" departLane="1i_0" departPos="4.10" departSpeed="0.00" departDelay="0.00" arrival="271.00" arrivalLane="3o_0" arrivalPos="492.80" arrivalSpeed="10.16" duration="79.00" routeLength="990.53" waitingTime="1.00" waitingCount="1" stopTime="0.00" timeLoss="9.84" rerouteNo="0" devices="tripinfo_WE_192" vType="car" speedFactor="1.02" vaporized=""/>
    <tripinfo id="SN_195" depart="195.00" departLane="3i_0" departPos="4.10" departSpeed="0.00" departDelay="0.00" arrival="279.00" arrivalLane="4o_0" arrivalPos="492.80" arrivalSpeed="10.01" duration="84.00" routeLength="995.90" waitingTime="0.00" waitingCount="0" stopTime="0.00" timeLoss="8.16" rerouteNo="0" devices="tripinfo_SN_195" vType="car" speedFactor="0.94" vaporized=""/>
    <tripinfo id="NS_192" depart="192.00" departLane="2i_0" departPos="4.10" departSpeed="0.00" departDelay="0.00" arrival="281.00" arrivalLane="1o_0" arrivalPos="492.80" arrivalSpeed="10.38" duration="89.00" routeLength="995.90" waitingTime="5.00" waitingCount="1" stopTime="0.00" timeLoss="16.76" rerouteNo="0" devices="tripinfo_NS_192" vType="car" speedFactor="0.99" vaporized=""/>
    <tripinfo id="WE_202" depart="202.00" departLane="1i_0" departPos="4.10" departSpeed="0.00" departDelay="0.00" arrival="290.00" arrivalLane="2o_0" arrivalPos="492.80" arrivalSpeed="10.09" duration="88.00" routeLength="995.90" waitingTime="0.00" waitingCount="0" stopTime="0.00" timeLoss="9.97" rerouteNo="0" devices="tripinfo_WE_202" vType="car" speedFactor="0.91" vaporized=""/>
    <tripinfo id="SN_198" depart="198.00" departLane="3i_0" departPos="4.10" departSpeed="0.00" departDelay="0.00" arrival="291.00" arrivalLane="1o_0" arrivalPos="492.80" arrivalSpeed="8.77" duration="93.00" routeLength="995.70" waitingTime="0.00" waitingCount="0" stopTime="0.00" timeLoss="12.71" rerouteNo="0" devices="tripinfo_SN_198" vType="car" speedFactor="0.88" vaporized=""/>
    <tripinfo id="EW_200" depart="200.00" departLane="4i_0" departPos="4.10" departSpeed="0.00" departDelay="0.00" arrival="292.00" arrivalLane="2o_0" arrivalPos="492.80" arrivalSpeed="9.24" duration="92.00" routeLength="995.70" waitingTime="1.00" waitingCount="1" stopTime="0.00" timeLoss="13.89" rerouteNo="0" devices="tripinfo_EW_200" vType="car" speedFactor="0.91" vaporized=""/>
    <tripinfo id="EW_203" depart="203.00" departLane="4i_0" departPos="4.10" departSpeed="0.00" departDelay="0.00" arrival="295.00" arrivalLane="3o_0" arrivalPos="492.80" arrivalSpeed="11.29" duration="92.00" routeLength="995.90" waitingTime="7.00" waitingCount="2" stopTime="0.00" timeLoss="23.38" rerouteNo="0" devices="tripinfo_EW_203" vType="car" speedFactor="1.04" vaporized=""/>
    <tripinfo id="EW_211" depart="211.00" departLane="4i_0" departPos="10.10" departSpeed="0.00" departDelay="0.00" arrival="297.00" arrivalLane="1o_0" arrivalPos="492.80" arrivalSpeed="10.73" duration="86.00" routeLength="984.53" waitingTime="0.00" waitingCount="0" stopTime="0.00" timeLoss="16.16" rerouteNo="0" devices="tripinfo_EW_211" vType="truck" speedFactor="1.01" vaporized=""/>
    <tripinfo id="NS_219" depart="219.00" departLane="2i_0" departPos="4.10" departSpeed="0.00" departDelay="0.00" arrival="302.00" arrivalLane="1o_0" arrivalPos="492.80" arrivalSpeed="10.18" duration="83.00" routeLength="995.90" waitingTime="0.00" waitingCount="0" stopTime="0.00" timeLoss="10.29" rerouteNo="0" devices="tripinfo_NS_219" vType="car" speedFactor="0.97" vaporized=""/>
    <tripinfo id="NS_224" depart="224.00" departLane="2i_0" departPos="4.10" departSpeed="0.00" departDelay="0.00" arrival="304.00" arrivalLane="1o_0" arrivalPos="492.80" arrivalSpeed="11.26" duration="80.00" routeLength="995.90" waitingTime="0.00" waitingCount="0" stopTime="0.00" timeLoss="12.61" rerouteNo="0" devices="tripinfo_NS_224" vType="car" speedFactor="1.06" vaporized=""/>
    <tripinfo id="EW_218" depart="218.00" departLane="4i_0" departPos="4.10" departSpeed="0.00" departDelay="0.00" arrival="305.00" arrivalLane="3o_0" arrivalPos="492.80" arrivalSpeed="10.29" duration="87.00" routeLength="995.90" waitingTime="1.00" waitingCount="1" stopTime="0.00" timeLoss="17.85" rerouteNo="0" devices="tripinfo_EW_218" vType="car" speedFactor="1.02" vaporized=""/>
    <tripinfo id="EW_225" depart="225.00" departLane="4i_0" departPos="4.10" departSpeed="0.00" departDelay="0.00" arrival="311.00" arrivalLane="2o_0" arrivalPos="492.80" arrivalSpeed="10.28" duration="86.00" routeLength="995.70" waitingTime="0.00" waitingCount="0" stopTime="0.00" timeLoss="11.46" rerouteNo="0" devices="tripinfo_EW_225" vType="car" speedFactor="0.96" vaporized=""/>
    <tripinfo id="SN_219" depart="219.00" departLane="3i_0" departPos="4.10" departSpeed="0.00" departDelay="0.00" arrival="313.00" arrivalLane="1o_0" arrivalPos="492.80" arrivalSpeed="10.29" duration="94.00" routeLength="995.70" waitingTime="5.00" waitingCount="2" stopTime="0.00" timeLoss="18.95" rerouteNo="0" devices="tripinfo_SN_219" vType="car" speedFactor="0.94" vaporized=""/>
    <tripinfo id="NS_228" depart="228.00" departLane="2i_0" departPos="4.10" departSpeed="0.00" departDelay="0.00" arrival="315.00" arrivalLane="1o_0" arrivalPos="492.80" arrivalSpeed="11.27" duration="87.00" routeLength="995.90" waitingTime="1.00" waitingCount="1" stopTime="0.00" timeLoss="18.33" rerouteNo="0" devices="tripinfo_NS_228" vType="car" speedFactor="1.03" vaporized=""/>