<?xml version="1.0" encoding="UTF-8"?>

<!-- generated on 2024-05-04 19:32:41 by Eclipse SUMO sumo Version 1.19.0
<configuration xmlns:xsi="http://www.w3.org/2001/XMLSchema-instance" xsi:noNamespaceSchemaLocation="http://sumo.dlr.de/xsd/sumoConfiguration.xsd">

    <input>
        <net-file value="test5.net.xml"/>
        <route-files value="route_gen.rou.xml"/>
    </input>

    <output>
        <tripinfo-output value="tripinfo_epi597.xml"/>
    </output>

    <report>
        <no-warnings value="true"/>
    </report>

    <traci_server>
        <remote-port value="50879"/>
    </traci_server>

</configuration>
-->

<tripinfos xmlns:xsi="http://www.w3.org/2001/XMLSchema-instance" xsi:noNamespaceSchemaLocation="http://sumo.dlr.de/xsd/tripinfo_file.xsd">
    <tripinfo id="SN_3" depart="3.00" departLane="3i_0" departPos="4.10" departSpeed="0.00" departDelay="0.00" arrival="78.00" arrivalLane="4o_0" arrivalPos="492.80" arrivalSpeed="11.54" duration="75.00" routeLength="995.90" waitingTime="0.00" waitingCount="0" stopTime="0.00" timeLoss="7.50" rerouteNo="0" devices="tripinfo_SN_3" vType="car" speedFactor="1.06" vaporized=""/>
    <tripinfo id="EW_11" depart="11.00" departLane="4i_0" departPos="4.10" departSpeed="0.00" departDelay="0.00" arrival="98.00" arrivalLane="3o_0" arrivalPos="492.80" arrivalSpeed="9.46" duration="87.00" routeLength="995.90" waitingTime="1.00" waitingCount="1" stopTime="0.00" timeLoss="10.59" rerouteNo="0" devices="tripinfo_EW_11" vType="car" speedFactor="0.94" vaporized=""/>
    <tripinfo id="WE_19" depart="19.00" departLane="1i_0" departPos="4.10" departSpeed="0.00" departDelay="0.00" arrival="100.00" arrivalLane="3o_0" arrivalPos="492.80" arrivalSpeed="10.60" duration="81.00" routeLength="990.53" waitingTime="1.00" waitingCount="1" stopTime="0.00" timeLoss="10.76" rerouteNo="0" devices="tripinfo_WE_19" vType="car" speedFactor="1.01" vaporized=""/>
    <tripinfo id="NS_20" depart="20.00" departLane="2i_0" departPos="4.10" departSpeed="0.00" departDelay="0.00" arrival="102.00" arrivalLane="3o_0" arrivalPos="492.80" arrivalSpeed="11.23" duration="82.00" routeLength="995.70" waitingTime="0.00" waitingCount="0" stopTime="0.00" timeLoss="16.03" rerouteNo="0" devices="tripinfo_NS_20" vType="car" speedFactor="1.08" vaporized=""/>
    <tripinfo id="WE_23" depart="23.00" departLane="1i_0" departPos="4.10" departSpeed="0.00" departDelay="0.00" arrival="105.00" arrivalLane="2o_0" arrivalPos="492.80" arrivalSpeed="10.44" duration="82.00" routeLength="995.90" waitingTime="0.00" waitingCount="0" stopTime="0.00" timeLoss="13.56" rerouteNo="0" devices="tripinfo_WE_23" vType="car" speedFactor="1.03" vaporized=""/>
    <tripinfo id="NS_26" depart="26.00" departLane="2i_0" departPos="4.10" departSpeed="0.00" departDelay="0.00" arrival="107.00" arrivalLane="3o_0" arrivalPos="492.80" arrivalSpeed="11.56" duration="81.00" routeLength="995.70" waitingTime="0.00" waitingCount="0" stopTime="0.00" timeLoss="13.46" rerouteNo="0" devices="tripinfo_NS_26" vType="car" speedFactor="1.05" vaporized=""/>
    <tripinfo id="WE_37" depart="37.00" departLane="1i_0" departPos="10.10" departSpeed="0.00" departDelay="0.00" arrival="119.00" arrivalLane="3o_0" arrivalPos="492.80" arrivalSpeed="11.47" duration="82.00" routeLength="984.53" waitingTime="0.00" waitingCount="0" stopTime="0.00" timeLoss="14.05" rerouteNo="0" devices="tripinfo_WE_37" vType="truck" speedFactor="1.05" vaporized=""/>
    <tripinfo id="SN_24" depart="24.00" departLane="3i_0" departPos="4.10" departSpeed="0.00" departDelay="0.00" arrival="123.00" arrivalLane="4o_0" arrivalPos="492.80" arrivalSpeed="8.15" duration="99.00" routeLength="995.90" waitingTime="1.00" waitingCount="1" stopTime="0.00" timeLoss="14.12" rerouteNo="0" devices="tripinfo_SN_24" vType="car" speedFactor="0.83" vaporized=""/>
    <tripinfo id="NS_27" depart="29.00" departLane="2i_0" departPos="4.10" departSpeed="0.00" departDelay="2.00" arrival="124.00" arrivalLane="1o_0" arrivalPos="492.80" arrivalSpeed="8.57" duration="95.00" routeLength="995.90" waitingTime="0.00" waitingCount="0" stopTime="0.00" timeLoss="14.54" rerouteNo="0" devices="tripinfo_NS_27" vType="car" speedFactor="0.89" vaporized=""/>
    <tripinfo id="WE_29" depart="29.00" departLane="1i_0" departPos="4.10" departSpeed="0.00" departDelay="0.00" arrival="125.00" arrivalLane="4o_0" arrivalPos="492.80" arrivalSpeed="9.93" duration="96.00" routeLength="995.70" waitingTime="5.00" waitingCount="1" stopTime="0.00" timeLoss="20.25" rerouteNo="0" devices="tripinfo_WE_29" vType="car" speedFactor="0.94" vaporized=""/>
    <tripinfo id="SN_45" depart="45.00" departLane="3i_0" departPos="4.10" departSpeed="0.00" departDelay="0.00" arrival="126.00" arrivalLane="2o_0" arrivalPos="492.80" arrivalSpeed="11.62" duration="81.00" routeLength="990.53" waitingTime="0.00" waitingCount="0" stopTime="0.00" timeLoss="17.67" rerouteNo="0" devices="tripinfo_SN_45" vType="car" speedFactor="1.12" vaporized=""/>
    <tripinfo id="SN_40" depart="40.00" departLane="3i_0" departPos="10.10" departSpeed="0.00" departDelay="0.00" arrival="129.00" arrivalLane="1o_0" arrivalPos="492.80" arrivalSpeed="10.89" duration="89.00" routeLength="989.70" waitingTime="0.00" waitingCount="0" stopTime="0.00" timeLoss="19.12" rerouteNo="0" devices="tripinfo_SN_40" vType="truck" speedFactor="1.01" vaporized=""/>
    <tripinfo id="SN_30" depart="30.00" departLane="3i_0" departPos="4.10" departSpeed="0.00" departDelay="0.00" arrival="131.00" arrivalLane="4o_0" arrivalPos="492.80" arrivalSpeed="9.27" duration="101.00" routeLength="995.90" waitingTime="4.00" waitingCount="2" stopTime="0.00" timeLoss="18.69" rerouteNo="0" devices="tripinfo_SN_30" vType="car" speedFactor="0.86" vaporized=""/>
    <tripinfo id="WE_44" depart="44.00" departLane="1i_0" departPos="4.10" departSpeed="0.00" departDelay="0.00" arrival="133.00" arrivalLane="4o_0" arrivalPos="492.80" arrivalSpeed="10.68" duration="89.00" routeLength="995.70" waitingTime="0.00" waitingCount="0" stopTime="0.00" timeLoss="21.28" rerouteNo="0" devices="tripinfo_WE_44" vType="car" speedFactor="1.05" vaporized=""/>
    <tripinfo id="EW_53" depart="53.00" departLane="4i_0" departPos="4.10" departSpeed="0.00" departDelay="0.00" arrival="134.00" arrivalLane="2o_0" arrivalPos="492.80" arrivalSpeed="9.75" duration="81.00" routeLength="995.70" waitingTime="0.00" waitingCount="0" stopTime="0.00" timeLoss="9.46" rerouteNo="0" devices="tripinfo_EW_53" vType="car" speedFactor="0.99" vaporized=""/>
    <tripinfo id="EW_60" depart="60.00" departLane="4i_0" departPos="4.10" departSpeed="0.00" departDelay="0.00" arrival="134.00" arrivalLane="1o_0" arrivalPos="492.80" arrivalSpeed="12.21" duration="74.00" routeLength="990.53" waitingTime="0.00" waitingCount="0" stopTime="0.00" timeLoss="12.72" rerouteNo="0" devices="tripinfo_EW_60" vType="car" speedFactor="1.16" vaporized=""/>
    <tripinfo id="EW_56" depart="56.00" departLane="4i_0" departPos="4.10" departSpeed="0.00" departDelay="0.00" arrival="143.00" arrivalLane="2o_0" arrivalPos="492.80" arrivalSpeed="10.20" duration="87.00" routeLength="995.70" waitingTime="0.00" waitingCount="0" stopTime="0.00" timeLoss="10.44" rerouteNo="0" devices="tripinfo_EW_56" vType="car" speedFactor="0.93" vaporized=""/>
    <tripinfo id="WE_59" depart="59.00" departLane="1i_0" departPos="4.10" departSpeed="0.00" departDelay="0.00" arrival="151.00" arrivalLane="4o_0" arrivalPos="492.80" arrivalSpeed="9.93" duration="92.00" routeLength="995.70" waitingTime="1.00" waitingCount="1" stopTime="0.00" timeLoss="16.19" rerouteNo="0" devices="tripinfo_WE_59" vType="car" speedFactor="0.94" vaporized=""/>
    <tripinfo id="NS_58" depart="58.00" departLane="2i_0" departPos="4.10" departSpeed="0.00" departDelay="0.00" arrival="152.00" arrivalLane="3o_0" arrivalPos="492.80" arrivalSpeed="9.11" duration="94.00" routeLength="995.70" waitingTime="1.00" waitingCount="1" stopTime="0.00" timeLoss="13.62" rerouteNo="0" devices="tripinfo_NS_58" vType="car" speedFactor="0.88" vaporized=""/>
    <tripinfo id="EW_65" depart="65.00" departLane="4i_0" departPos="4.10" departSpeed="0.00" departDelay="0.00" arrival="152.00" arrivalLane="2o_0" arrivalPos="492.80" arrivalSpeed="10.32" duration="87.00" routeLength="995.70" waitingTime="0.00" waitingCount="0" stopTime="0.00" timeLoss="13.97" rerouteNo="0" devices="tripinfo_EW_65" vType="car" speedFactor="0.97" vaporized=""/>
    <tripinfo id="NS_59" depart="62.00" departLane="2i_0" departPos="10.10" departSpeed="0.00" departDelay="3.00" arrival="153.00" arrivalLane="4o_0" arrivalPos="492.80" arrivalSpeed="10.27" duration="91.00" routeLength="984.53" waitingTime="0.00" waitingCount="0" stopTime="0.00" timeLoss="18.30" rerouteNo="0" devices="tripinfo_NS_59" vType="truck" speedFactor="0.97" vaporized=""/>
    <tripinfo id="WE_63" depart="63.00" departLane="1i_0" departPos="10.10" departSpeed="0.00" departDelay="0.00" arrival="155.00" arrivalLane="3o_0" arrivalPos="492.80" arrivalSpeed="10.72" duration="92.00" routeLength="984.53" waitingTime="0.00" waitingCount="0" stopTime="0.00" timeLoss="21.91" rerouteNo="0" devices="tripinfo_WE_63" vType="truck" speedFactor="1.01" vaporized=""/>
    <tripinfo id="EW_67" depart="68.00" departLane="4i_0" departPos="4.10" departSpeed="0.00" departDelay="1.00" arrival="157.00" arrivalLane="1o_0" arrivalPos="492.80" arrivalSpeed="9.10" duration="89.00" routeLength="990.53" waitingTime="0.00" waitingCount="0" stopTime="0.00" timeLoss="9.73" rerouteNo="0" devices="tripinfo_EW_67" vType="car" speedFactor="0.89" vaporized=""/>
    <tripinfo id="EW_74" depart="74.00" departLane="4i_0" departPos="4.10" departSpeed="0.00" departDelay="0.00" arrival="159.00" arrivalLane="1o_0" arrivalPos="492.80" arrivalSpeed="9.99" duration="85.00" routeLength="990.53" waitingTime="0.00" waitingCount="0" stopTime="0.00" timeLoss="10.47" rerouteNo="0" devices="tripinfo_EW_74" vType="car" speedFactor="0.95" vaporized=""/>
    <tripinfo id="SN_63" depart="63.00" departLane="3i_0" departPos="4.10" departSpeed="0.00" departDelay="0.00" arrival="163.00" arrivalLane="1o_0" arrivalPos="492.80" arrivalSpeed="10.35" duration="100.00" routeLength="995.70" waitingTime="14.00" waitingCount="1" stopTime="0.00" timeLoss="29.45" rerouteNo="0" devices="tripinfo_SN_63" vType="car" speedFactor="1.01" vaporized=""/>
    <tripinfo id="WE_72" depart="72.00" departLane="1i_0" departPos="4.10" departSpeed="0.00" departDelay="0.00" arrival="165.00" arrivalLane="3o_0" arrivalPos="492.80" arrivalSpeed="8.65" duration="93.00" routeLength="990.53" waitingTime="1.00" waitingCount="1" stopTime="0.00" timeLoss="11.56" rerouteNo="0" devices="tripinfo_WE_72" vType="car" speedFactor="0.87" vaporized=""/>
    <tripinfo id="NS_71" depart="71.00" departLane="2i_0" departPos="4.10" departSpeed="0.00" departDelay="0.00" arrival="171.00" arrivalLane="3o_0" arrivalPos="492.80" arrivalSpeed="8.38" duration="100.00" routeLength="995.70" waitingTime="0.00" waitingCount="0" stopTime="0.00" timeLoss="14.14" rerouteNo="0" devices="tripinfo_NS_71" vType="car" speedFactor="0.83" vaporized=""/>
    <tripinfo id="WE_73" depart="75.00" departLane="1i_0" departPos="4.10" departSpeed="0.00" departDelay="2.00" arrival="171.00" arrivalLane="2o_0" arrivalPos="492.80" arrivalSpeed="9.96" duration="96.00" routeLength="995.90" waitingTime="3.00" waitingCount="2" stopTime="0.00" timeLoss="19.16" rerouteNo="0" devices="tripinfo_WE_73" vType="car" speedFactor="0.92" vaporized=""/>
    <tripinfo id="WE_83" depart="83.00" departLane="1i_0" departPos="4.10" departSpeed="0.00" departDelay="0.00" arrival="173.00" arrivalLane="2o_0" arrivalPos="492.80" arrivalSpeed="12.28" duration="90.00" routeLength="995.90" waitingTime="0.00" waitingCount="0" stopTime="0.00" timeLoss="27.18" rerouteNo="0" devices="tripinfo_WE_83" vType="car" speedFactor="1.13" vaporized=""/>
    <tripinfo id="EW_95" depart="95.00" departLane="4i_0" departPos="4.10" departSpeed="0.00" departDelay="0.00" arrival="174.00" arrivalLane="1o_0" arrivalPos="492.80" arrivalSpeed="11.83" duration="79.00" routeLength="990.53" waitingTime="5.00" waitingCount="1" stopTime="0.00" timeLoss="19.23" rerouteNo="0" devices="tripinfo_EW_95" vType="car" speedFactor="1.18" vaporized=""/>
    <tripinfo id="EW_92" depart="92.00" departLane="4i_0" departPos="4.10" departSpeed="0.00" departDelay="0.00" arrival="177.00" arrivalLane="3o_0" arrivalPos="492.80" arrivalSpeed="10.17" duration="85.00" routeLength="995.90" waitingTime="0.00" waitingCount="0" stopTime="0.00" timeLoss="8.92" rerouteNo="0" devices="tripinfo_EW_92" vType="car" speedFactor="0.93" vaporized=""/>
    <tripinfo id="NS_102" depart="102.00" departLane="2i_0" departPos="4.10" departSpeed="0.00" departDelay="0.00" arrival="183.00" arrivalLane="4o_0" arrivalPos="492.80" arrivalSpeed="11.15" duration="81.00" routeLength="990.53" waitingTime="0.00" waitingCount="0" stopTime="0.00" timeLoss="11.14" rerouteNo="0" devices="tripinfo_NS_102" vType="car" speedFactor="1.01" vaporized=""/>
    <tripinfo id="EW_99" depart="99.00" departLane="4i_0" departPos="4.10" departSpeed="0.00" departDelay="0.00" arrival="187.00" arrivalLane="2o_0" arrivalPos="492.80" arrivalSpeed="12.05" duration="88.00" routeLength="995.70" waitingTime="7.00" waitingCount="2" stopTime="0.00" timeLoss="26.77" rerouteNo="0" devices="tripinfo_EW_99" vType="car" speedFactor="1.15" vaporized=""/>
    <tripinfo id="EW_103" depart="103.00" departLane="4i_0" departPos="4.10" departSpeed="0.00" departDelay="0.00" arrival="188.00" arrivalLane="1o_0" arrivalPos="492.80" arrivalSpeed="12.74" duration="85.00" routeLength="990.53" waitingTime="4.00" waitingCount="1" stopTime="0.00" timeLoss="24.66" rerouteNo="0" devices="tripinfo_EW_103" vType="car" speedFactor="1.17" vaporized=""/>
    <tripinfo id="SN_106" depart="107.00" departLane="3i_0" departPos="4.10" departSpeed="0.00" departDelay="1.00" arrival="188.00" arrivalLane="4o_0" arrivalPos="492.80" arrivalSpeed="10.42" duration="81.00" routeLength="995.90" waitingTime="0.00" waitingCount="0" stopTime="0.00" timeLoss="8.38" rerouteNo="0" devices="tripinfo_SN_106" vType="car" speedFactor="0.97" vaporized=""/>
    <tripinfo id="NS_103" depart="105.00" departLane="2i_0" departPos="4.10" departSpeed="0.00" departDelay="2.00" arrival="190.00" arrivalLane="3o_0" arrivalPos="492.80" arrivalSpeed="10.23" duration="85.00" routeLength="995.70" waitingTime="0.00" waitingCount="0" stopTime="0.00" timeLoss="13.83" rerouteNo="0" devices="tripinfo_NS_103" vType="car" speedFactor="0.99" vaporized=""/>
    <tripinfo id="NS_105" depart="108.00" departLane="2i_0" departPos="4.10" departSpeed="0.00" departDelay="3.00" arrival="190.00" arrivalLane="4o_0" arrivalPos="492.80" arrivalSpeed="11.29" duration="82.00" routeLength="990.53" waitingTime="0.00" waitingCount="0" stopTime="0.00" timeLoss="12.88" rerouteNo="0" devices="tripinfo_NS_105" vType="car" speedFactor="1.02" vaporized=""/>
    <tripinfo id="NS_108" depart="110.00" departLane="2i_0" departPos="4.10" departSpeed="0.00" departDelay="2.00" arrival="191.00" arrivalLane="1o_0" arrivalPos="492.80" arrivalSpeed="12.03" duration="81.00" routeLength="995.90" waitingTime="1.00" waitingCount="1" stopTime="0.00" timeLoss="20.70" rerouteNo="0" devices="tripinfo_NS_108" vType="car" speedFactor="1.18" vaporized=""/>
    <tripinfo id="SN_119" depart="119.00" departLane="3i_0" departPos="4.10" departSpeed="0.00" departDelay="0.00" arrival="200.00" arrivalLane="4o_0" arrivalPos="492.80" arrivalSpeed="10.66" duration="81.00" routeLength="995.90" waitingTime="0.00" waitingCount="0" stopTime="0.00" timeLoss="12.35" rerouteNo="0" devices="tripinfo_SN_119" vType="car" speedFactor="1.03" vaporized=""/>
    <tripinfo id="EW_110" depart="110.00" departLane="4i_0" departPos="4.10" departSpeed="0.00" departDelay="0.00" arrival="202.00" arrivalLane="2o_0" arrivalPos="492.80" arrivalSpeed="11.46" duration="92.00" routeLength="995.70" waitingTime="4.00" waitingCount="2" stopTime="0.00" timeLoss="27.47" rerouteNo="0" devices="tripinfo_EW_110" vType="car" speedFactor="1.10" vaporized=""/>
    <tripinfo id="EW_127" depart="127.00" departLane="4i_0" departPos="4.10" departSpeed="0.00" departDelay="0.00" arrival="204.00" arrivalLane="1o_0" arrivalPos="492.80" arrivalSpeed="10.43" duration="77.00" routeLength="990.53" waitingTime="0.00" waitingCount="0" stopTime="0.00" timeLoss="8.90" rerouteNo="0" devices="tripinfo_EW_127" vType="car" speedFactor="1.04" vaporized=""/>
    <tripinfo id="WE_124" depart="124.00" departLane="1i_0" departPos="4.10" departSpeed="0.00" departDelay="0.00" arrival="209.00" arrivalLane="3o_0" arrivalPos="492.80" arrivalSpeed="11.08" duration="85.00" routeLength="990.53" waitingTime="3.00" waitingCount="1" stopTime="0.00" timeLoss="19.81" rerouteNo="0" devices="tripinfo_WE_124" vType="car" speedFactor="1.09" vaporized=""/>
    <tripinfo id="SN_121" depart="122.00" departLane="3i_0" departPos="4.10" departSpeed="0.00" departDelay="1.00" arrival="211.00" arrivalLane="2o_0" arrivalPos="492.80" arrivalSpeed="9.72" duration="89.00" routeLength="990.53" waitingTime="1.00" waitingCount="1" stopTime="0.00" timeLoss="14.97" rerouteNo="0" devices="tripinfo_SN_121" vType="car" speedFactor="0.96" vaporized=""/>
    <tripinfo id="WE_131" depart="131.00" departLane="1i_0" departPos="4.10" departSpeed="0.00" departDelay="0.00" arrival="214.00" arrivalLane="3o_0" arrivalPos="492.80" arrivalSpeed="11.25" duration="83.00" routeLength="990.53" waitingTime="0.00" waitingCount="0" stopTime="0.00" timeLoss="15.02" rerouteNo="0" devices="tripinfo_WE_131" vType="car" speedFactor="1.04" vaporized=""/>
    <tripinfo id="WE_132" depart="134.00" departLane="1i_0" departPos="4.10" departSpeed="0.00" departDelay="2.00" arrival="215.00" arrivalLane="3o_0" arrivalPos="492.80" arrivalSpeed="11.71" duration="81.00" routeLength="990.53" waitingTime="0.00" waitingCount="0" stopTime="0.00" timeLoss="16.35" rerouteNo="0" devices="tripinfo_WE_132" vType="car" speedFactor="1.09" vaporized=""/>
    <tripinfo id="WE_119" depart="119.00" departLane="1i_0" departPos="4.10" departSpeed="0.00" departDelay="0.00" arrival="216.00" arrivalLane="2o_0" arrivalPos="492.80" arrivalSpeed="9.93" duration="97.00" routeLength="995.90" waitingTime="5.00" waitingCount="2" stopTime="0.00" timeLoss="17.94" rerouteNo="0" devices="tripinfo_WE_119" vType="car" speedFactor="0.90" vaporized=""/>
    <tripinfo id="EW_135" depart="135.00" departLane="4i_0" departPos="4.10" departSpeed="0.00" departDelay="0.00" arrival="218.00" arrivalLane="2o_0" arrivalPos="492.80" arrivalSpeed="9.87" duration="83.00" routeLength="995.70" waitingTime="0.00" waitingCount="0" stopTime="0.00" timeLoss="11.56" rerouteNo="0" devices="tripinfo_EW_135" vType="car" speedFactor="1.00" vaporized=""/>
    <tripinfo id="SN_135" depart="135.00" departLane="3i_0" departPos="4.10" departSpeed="0.00" departDelay="0.00" arrival="223.00" arrivalLane="1o_0" arrivalPos="492.80" arrivalSpeed="9.02" duration="88.00" routeLength="995.70" waitingTime="0.00" waitingCount="0" stopTime="0.00" timeLoss="9.53" rerouteNo="0" devices="tripinfo_SN_135" vType="car" speedFactor="0.90" vaporized=""/>
    <tripinfo id="WE_152" depart="152.00" departLane="1i_0" departPos="4.10" departSpeed="0.00" departDelay="0.00" arrival="231.00" arrivalLane="3o_0" arrivalPos="492.80" arrivalSpeed="11.81" duration="79.00" routeLength="990.53" waitingTime="0.00" waitingCount="0" stopTime="0.00" timeLoss="18.31" rerouteNo="0" devices="tripinfo_WE_152" vType="car" speedFactor="1.17" vaporized=""/>
    <tripinfo id="SN_152" depart="152.00" departLane="3i_0" departPos="4.10" departSpeed="0.00" departDelay="0.00" arrival="232.00" arrivalLane="1o_0" arrivalPos="492.80" arrivalSpeed="10.58" duration="80.00" routeLength="995.70" waitingTime="0.00" waitingCount="0" stopTime="0.00" timeLoss="10.28" rerouteNo="0" devices="tripinfo_SN_152" vType="car" speedFactor="1.02" vaporized=""/>
    <tripinfo id="WE_148" depart="148.00" departLane="1i_0" departPos="4.10" departSpeed="0.00" departDelay="0.00" arrival="238.00" arrivalLane="2o_0" arrivalPos="492.80" arrivalSpeed="9.19" duration="90.00" routeLength="995.90" waitingTime="0.00" waitingCount="0" stopTime="0.00" timeLoss="8.65" rerouteNo="0" devices="tripinfo_WE_148" vType="car" speedFactor="0.88" vaporized=""/>
    <tripinfo id="SN_155" depart="155.00" departLane="3i_0" departPos="4.10" departSpeed="0.00" departDelay="0.00" arrival="240.00" arrivalLane="1o_0" arrivalPos="492.80" arrivalSpeed="11.01" duration="85.00" routeLength="995.70" waitingTime="4.00" waitingCount="1" stopTime="0.00" timeLoss="19.68" rerouteNo="0" devices="tripinfo_SN_155" vType="car" speedFactor="1.10" vaporized=""/>
    <tripinfo id="NS_157" depart="157.00" departLane="2i_0" departPos="4.10" departSpeed="0.00" departDelay="0.00" arrival="242.00" arrivalLane="4o_0" arrivalPos="492.80" arrivalSpeed="10.66" duration="85.00" routeLength="990.53" waitingTime="4.00" waitingCount="1" stopTime="0.00" timeLoss="14.60" rerouteNo="0" devices="tripinfo_NS_157" vType="car" speedFactor="1.00" vaporized=""/>
    <tripinfo id="NS_158" depart="160.00" departLane="2i_0" departPos="4.10" departSpeed="0.00" departDelay="2.00" arrival="245.00" arrivalLane="4o_0" arrivalPos="492.80" arrivalSpeed="10.35" duration="85.00" routeLength="990.53" waitingTime="1.00" waitingCount="1" stopTime="0.00" timeLoss="13.98" rerouteNo="0" devices="tripinfo_NS_158" vType="car" speedFactor="1.00" vaporized=""/>
    <tripinfo id="NS_160" depart="163.00" departLane="2i_0" departPos="10.10" departSpeed="0.00" departDelay="3.00" arrival="247.00" arrivalLane="4o_0" arrivalPos="492.80" arrivalSpeed="11.49" duration="84.00" routeLength="984.53" waitingTime="0.00" waitingCount="0" stopTime="0.00" timeLoss="17.57" rerouteNo="0" devices="tripinfo_NS_160" vType="truck" speedFactor="1.07" vaporized=""/>
    <tripinfo id="EW_150" depart="153.00" departLane="4i_0" departPos="4.10" departSpeed="0.00" departDelay="3.00" arrival="248.00" arrivalLane="3o_0" arrivalPos="492.80" arrivalSpeed="8.44" duration="95.00" routeLength="995.90" waitingTime="0.00" waitingCount="0" stopTime="0.00" timeLoss="11.65" rerouteNo="0" devices="tripinfo_EW_150" vType="car" speedFactor="0.85" vaporized=""/>
    <tripinfo id="EW_151" depart="156.00" departLane="4i_0" departPos="4.10" departSpeed="0.00" departDelay="5.00" arrival="250.00" arrivalLane="2o_0" arrivalPos="492.80" arrivalSpeed="8.94" duration="94.00" routeLength="995.70" waitingTime="0.00" waitingCount="0" stopTime="0.00" timeLoss="11.05" rerouteNo="0" devices="tripinfo_EW_151" vType="car" speedFactor="0.85" vaporized=""/>
    <tripinfo id="SN_174" depart="174.00" departLane="3i_0" departPos="4.10" departSpeed="0.00" departDelay="0.00" arrival="252.00" arrivalLane="2o_0" arrivalPos="492.80" arrivalSpeed="10.98" duration="78.00" routeLength="990.53" waitingTime="0.00" waitingCount="0" stopTime="0.00" timeLoss="8.54" rerouteNo="0" devices="tripinfo_SN_174" vType="car" speedFactor="1.02" vaporized=""/>
    <tripinfo id="WE_159" depart="159.00" departLane="1i_0" departPos="4.10" departSpeed="0.00" departDelay="0.00" arrival="259.00" arrivalLane="4o_0" arrivalPos="492.80" arrivalSpeed="9.93" duration="100.00" routeLength="995.70" waitingTime="8.00" waitingCount="1" stopTime="0.00" timeLoss="21.23" rerouteNo="0" devices="tripinfo_WE_159" vType="car" speedFactor="0.90" vaporized=""/>
    <tripinfo id="NS_168" depart="168.00" departLane="2i_0" departPos="4.10" departSpeed="0.00" departDelay="0.00" arrival="260.00" arrivalLane="1o_0" arrivalPos="492.80" arrivalSpeed="10.16" duration="92.00" routeLength="995.90" waitingTime="4.00" waitingCount="1" stopTime="0.00" timeLoss="18.77" rerouteNo="0" devices="tripinfo_NS_168" vType="car" speedFactor="0.97" vaporized=""/>
    <tripinfo id="WE_167" depart="167.00" departLane="1i_0" departPos="10.10" departSpeed="0.00" departDelay="0.00" arrival="261.00" arrivalLane="3o_0" arrivalPos="492.80" arrivalSpeed="10.71" duration="94.00" routeLength="984.53" waitingTime="1.00" waitingCount="1" stopTime="0.00" timeLoss="24.85" rerouteNo="0" devices="tripinfo_WE_167" vType="truck" speedFactor="1.01" vaporized=""/>
    <tripinfo id="SN_175" depart="177.00" departLane="3i_0" departPos="4.10" departSpeed="0.00" departDelay="2.00" arrival="262.00" arrivalLane="4o_0" arrivalPos="492.80" arrivalSpeed="10.32" duration="85.00" routeLength="995.90" waitingTime="0.00" waitingCount="0" stopTime="0.00" timeLoss="12.84" rerouteNo="0" devices="tripinfo_SN_175" vType="car" speedFactor="0.99" vaporized=""/>
    <tripinfo id="SN_183" depart="183.00" departLane="3i_0" departPos="4.10" departSpeed="0.00" departDelay="0.00" arrival="262.00" arrivalLane="1o_0" arrivalPos="492.80" arrivalSpeed="10.55" duration="79.00" routeLength="995.70" waitingTime="0.00" waitingCount="0" stopTime="0.00" timeLoss="10.44" rerouteNo="0" devices="tripinfo_SN_183" vType="car" speedFactor="1.04" vaporized=""/>
    <tripinfo id="NS_184" depart="184.00" departLane="2i_0" departPos="4.10" departSpeed="0.00" departDelay="0.00" arrival="267.00" arrivalLane="3o_0" arrivalPos="492.80" arrivalSpeed="11.29" duration="83.00" routeLength="995.70" waitingTime="0.00" waitingCount="0" stopTime="0.00" timeLoss="13.79" rerouteNo="0" devices="tripinfo_NS_184" vType="car" speedFactor="1.02" vaporized=""/>
    <tripinfo id="WE_169" depart="171.00" departLane="1i_0" departPos="4.10" departSpeed="0.00" departDelay="2.00" arrival="268.00" arrivalLane="4o_0" arrivalPos="492.80" arrivalSpeed="11.70" duration="97.00" routeLength="995.70" waitingTime="3.00" waitingCount="2" stopTime="0.00" timeLoss="31.09" rerouteNo="0" devices="tripinfo_WE_169" vType="car" speedFactor="1.08" vaporized=""/>
    <tripinfo id="WE_170" depart="174.00" departLane="1i_0" departPos="4.10" departSpeed="0.00" departDelay="4.00" arrival="271.00" arrivalLane="3o_0" arrivalPos="492.80" arrivalSpeed="11.80" duration="97.00" routeLength="990.53" waitingTime="3.00" waitingCount="2" stopTime="0.00" timeLoss="34.06" rerouteNo="0" devices="tripinfo_WE_170" vType="car" speedFactor="1.12" vaporized=""/>
    <tripinfo id="NS_179" depart="179.00" departLane="2i_0" departPos="4.10" departSpeed="0.00" departDelay="0.00" arrival="271.00" arrivalLane="1o_0" arrivalPos="492.80" arrivalSpeed="9.53" duration="92.00" routeLength="995.90" waitingTime="0.00" waitingCount="0" stopTime="0.00" timeLoss="13.84" rerouteNo="0" devices="tripinfo_NS_179" vType="car" speedFactor="0.91" vaporized=""/>
    <tripinfo id="EW_193" depart="193.00" departLane="4i_0" departPos="10.10" departSpeed="0.00" departDelay="0.00" arrival="276.00" arrivalLane="1o_0" arrivalPos="492.80" arrivalSpeed="10.87" duration="83.00" routeLength="984.53" waitingTime="0.00" waitingCount="0" stopTime="0.00" timeLoss="13.75" rerouteNo="0" devices="tripinfo_EW_193" vType="truck" speedFactor="1.01" vaporized=""/>
    <tripinfo id="WE_176" depart="177.00" departLane="1i_0" departPos="4.10" departSpeed="0.00" departDelay="1.00" arrival="282.00" arrivalLane="2o_0" arrivalPos="492.80" arrivalSpeed="9.71" duration="105.00" routeLength="995.90" waitingTime="3.00" waitingCount="2" stopTime="0.00" timeLoss="29.18" rerouteNo="0" devices="tripinfo_WE_176" vType="car" speedFactor="0.94" vaporized=""/>
    <tripinfo id="SN_199" depart="199.00" departLane="3i_0" departPos="4.10" departSpeed="0.00" departDelay="0.00" arrival="284.00" arrivalLane="4o_0" arrivalPos="492.80" arrivalSpeed="10.26" duration="85.00" routeLength="995.90" waitingTime="0.00" waitingCount="0" stopTime="0.00" timeLoss="9.08" rerouteNo="0" devices="tripinfo_SN_199" vType="car" speedFactor="0.94" vaporized=""/>
    <tripinfo id="NS_195" depart="195.00" departLane="2i_0" departPos="10.10" departSpeed="0.00" departDelay="0.00" arrival="289.00" arrivalLane="3o_0" arrivalPos="492.80" arrivalSpeed="10.37" duration="94.00" routeLength="989.70" waitingTime="0.00" waitingCount="0" stopTime="0.00" timeLoss="22.62" rerouteNo="0" devices="tripinfo_NS_195" vType="truck" speedFactor="0.99" vaporized=""/>
    <tripinfo id="WE_177" depart="180.00" departLane="1i_0" departPos="4.10" departSpeed="0.00" departDelay="3.00" arrival="290.00" arrivalLane="2o_0" arrivalPos="492.80" arrivalSpeed="8.70" duration="110.00" routeLength="995.90" waitingTime="1.00" waitingCount="1" stopTime="0.00" timeLoss="29.34" rerouteNo="0" devices="tripinfo_WE_177" vType="car" speedFactor="0.88" vaporized=""/>
    <tripinfo id="WE_181" depart="182.00" departLane="1i_0" departPos="4.10" departSpeed="0.00" departDelay="1.00" arrival="292.00" arrivalLane="4o_0" arrivalPos="492.80" arrivalSpeed="9.75" duration="110.00" routeLength="995.70" waitingTime="4.00" waitingCount="3" stopTime="0.00" timeLoss="32.44" rerouteNo="0" devices="tripinfo_WE_181" vType="car" speedFactor="0.91" vaporized=""/>
    <tripinfo id="NS_206" depart="206.00" departLane="2i_0" departPos="4.10" departSpeed="0.00" departDelay="0.00" arrival="292.00" arrivalLane="3o_0" arrivalPos="492.80" arrivalSpeed="10.29" duration="86.00" routeLength="995.70" waitingTime="0.00" waitingCount="0" stopTime="0.00" timeLoss="16.83" rerouteNo="0" devices="tripinfo_NS_206" vType="car" speedFactor="1.03" vaporized=""/>
    <tripinfo id="EW_212" depart="212.00" departLane="4i_0" departPos="4.10" departSpeed="0.00" departDelay="0.00" arrival="295.00" arrivalLane="2o_0" arrivalPos="492.80" arrivalSpeed="10.84" duration="83.00" routeLength="995.70" waitingTime="0.00" waitingCount="0" stopTime="0.00" timeLoss="11.05" rerouteNo="0" devices="tripinfo_EW_212" vType="car" speedFactor="0.98" vaporized=""/>
    <tripinfo id="SN_200" depart="203.00" departLane="3i_0" departPos="10.10" departSpeed="0.00" departDelay="3.00" arrival="297.00" arrivalLane="1o_0" arrivalPos="492.80" arrivalSpeed="11.42" duration="94.00" routeLength="989.70" waitingTime="5.00" waitingCount="1" stopTime="0.00" timeLoss="25.53" rerouteNo="0" devices="tripinfo_SN_200" vType="truck" speedFactor="1.03" vaporized=""/>