<?xml version="1.0" encoding="UTF-8"?>

<!-- generated on 2024-05-04 19:32:56 by Eclipse SUMO sumo Version 1.19.0
<configuration xmlns:xsi="http://www.w3.org/2001/XMLSchema-instance" xsi:noNamespaceSchemaLocation="http://sumo.dlr.de/xsd/sumoConfiguration.xsd">

    <input>
        <net-file value="test5.net.xml"/>
        <route-files value="route_gen.rou.xml"/>
    </input>

    <output>
        <tripinfo-output value="tripinfo_epi598.xml"/>
    </output>

    <report>
        <no-warnings value="true"/>
    </report>

    <traci_server>
        <remote-port value="43901"/>
    </traci_server>

</configuration>
-->

<tripinfos xmlns:xsi="http://www.w3.org/2001/XMLSchema-instance" xsi:noNamespaceSchemaLocation="http://sumo.dlr.de/xsd/tripinfo_file.xsd">
    <tripinfo id="WE_0" depart="0.00" departLane="1i_0" departPos="4.10" departSpeed="0.00" departDelay="0.00" arrival="74.00" arrivalLane="3o_0" arrivalPos="492.80" arrivalSpeed="11.26" duration="74.00" routeLength="990.53" waitingTime="0.00" waitingCount="0" stopTime="0.00" timeLoss="7.61" rerouteNo="0" devices="tripinfo_WE_0" vType="car" speedFactor="1.06" vaporized=""/>
    <tripinfo id="EW_2" depart="2.00" departLane="4i_0" departPos="4.10" departSpeed="0.00" departDelay="0.00" arrival="87.00" arrivalLane="3o_0" arrivalPos="492.80" arrivalSpeed="9.82" duration="85.00" routeLength="995.90" waitingTime="0.00" waitingCount="0" stopTime="0.00" timeLoss="8.86" rerouteNo="0" devices="tripinfo_EW_2" vType="car" speedFactor="0.94" vaporized=""/>
    <tripinfo id="WE_5" depart="5.00" departLane="1i_0" departPos="4.10" departSpeed="0.00" departDelay="0.00" arrival="89.00" arrivalLane="3o_0" arrivalPos="492.80" arrivalSpeed="11.11" duration="84.00" routeLength="990.53" waitingTime="3.00" waitingCount="1" stopTime="0.00" timeLoss="13.66" rerouteNo="0" devices="tripinfo_WE_5" vType="car" speedFactor="1.01" vaporized=""/>
    <tripinfo id="SN_10" depart="10.00" departLane="3i_0" departPos="4.10" departSpeed="0.00" departDelay="0.00" arrival="89.00" arrivalLane="2o_0" arrivalPos="492.80" arrivalSpeed="10.58" duration="79.00" routeLength="990.53" waitingTime="1.00" waitingCount="1" stopTime="0.00" timeLoss="10.80" rerouteNo="0" devices="tripinfo_SN_10" vType="car" speedFactor="1.05" vaporized=""/>
    <tripinfo id="WE_9" depart="10.00" departLane="1i_0" departPos="4.10" departSpeed="0.00" departDelay="1.00" arrival="103.00" arrivalLane="3o_0" arrivalPos="492.80" arrivalSpeed="11.29" duration="93.00" routeLength="990.53" waitingTime="4.00" waitingCount="2" stopTime="0.00" timeLoss="23.95" rerouteNo="0" devices="tripinfo_WE_9" vType="car" speedFactor="1.03" vaporized=""/>
    <tripinfo id="EW_20" depart="20.00" departLane="4i_0" departPos="4.10" departSpeed="0.00" departDelay="0.00" arrival="104.00" arrivalLane="1o_0" arrivalPos="492.80" arrivalSpeed="10.32" duration="84.00" routeLength="990.53" waitingTime="0.00" waitingCount="0" stopTime="0.00" timeLoss="8.55" rerouteNo="0" devices="tripinfo_EW_20" vType="car" speedFactor="0.94" vaporized=""/>
    <tripinfo id="NS_10" depart="10.00" departLane="2i_0" departPos="4.10" departSpeed="0.00" departDelay="0.00" arrival="105.00" arrivalLane="4o_0" arrivalPos="492.80" arrivalSpeed="9.01" duration="95.00" routeLength="990.53" waitingTime="0.00" waitingCount="0" stopTime="0.00" timeLoss="10.01" rerouteNo="0" devices="tripinfo_NS_10" vType="car" speedFactor="0.83" vaporized=""/>
    <tripinfo id="WE_8" depart="8.00" departLane="1i_0" departPos="4.10" departSpeed="0.00" departDelay="0.00" arrival="107.00" arrivalLane="4o_0" arrivalPos="492.80" arrivalSpeed="11.30" duration="99.00" routeLength="995.70" waitingTime="4.00" waitingCount="2" stopTime="0.00" timeLoss="33.17" rerouteNo="0" devices="tripinfo_WE_8" vType="car" speedFactor="1.08" vaporized=""/>
    <tripinfo id="SN_28" depart="30.00" departLane="3i_0" departPos="4.10" departSpeed="0.00" departDelay="2.00" arrival="109.00" arrivalLane="4o_0" arrivalPos="492.80" arrivalSpeed="10.99" duration="79.00" routeLength="995.90" waitingTime="0.00" waitingCount="0" stopTime="0.00" timeLoss="11.22" rerouteNo="0" devices="tripinfo_SN_28" vType="car" speedFactor="1.05" vaporized=""/>
    <tripinfo id="WE_14" depart="14.00" departLane="1i_0" departPos="4.10" departSpeed="0.00" departDelay="0.00" arrival="113.00" arrivalLane="3o_0" arrivalPos="492.80" arrivalSpeed="9.65" duration="99.00" routeLength="990.53" waitingTime="1.00" waitingCount="1" stopTime="0.00" timeLoss="19.75" rerouteNo="0" devices="tripinfo_WE_14" vType="car" speedFactor="0.89" vaporized=""/>
    <tripinfo id="SN_24" depart="24.00" departLane="3i_0" departPos="4.10" departSpeed="0.00" departDelay="0.00" arrival="115.00" arrivalLane="2o_0" arrivalPos="492.80" arrivalSpeed="9.20" duration="91.00" routeLength="990.53" waitingTime="0.00" waitingCount="0" stopTime="0.00" timeLoss="8.57" rerouteNo="0" devices="tripinfo_SN_24" vType="car" speedFactor="0.86" vaporized=""/>
    <tripinfo id="NS_29" depart="29.00" departLane="2i_0" departPos="4.10" departSpeed="0.00" departDelay="0.00" arrival="115.00" arrivalLane="3o_0" arrivalPos="492.80" arrivalSpeed="11.47" duration="86.00" routeLength="995.70" waitingTime="0.00" waitingCount="0" stopTime="0.00" timeLoss="22.74" rerouteNo="0" devices="tripinfo_NS_29" vType="car" speedFactor="1.12" vaporized=""/>
    <tripinfo id="SN_26" depart="27.00" departLane="3i_0" departPos="4.10" departSpeed="0.00" departDelay="1.00" arrival="117.00" arrivalLane="2o_0" arrivalPos="492.80" arrivalSpeed="11.90" duration="90.00" routeLength="990.53" waitingTime="0.00" waitingCount="0" stopTime="0.00" timeLoss="24.75" rerouteNo="0" devices="tripinfo_SN_26" vType="car" speedFactor="1.09" vaporized=""/>
    <tripinfo id="WE_28" depart="28.00" departLane="1i_0" departPos="4.10" departSpeed="0.00" departDelay="0.00" arrival="117.00" arrivalLane="3o_0" arrivalPos="492.80" arrivalSpeed="10.94" duration="89.00" routeLength="990.53" waitingTime="5.00" waitingCount="1" stopTime="0.00" timeLoss="20.04" rerouteNo="0" devices="tripinfo_WE_28" vType="car" speedFactor="1.03" vaporized=""/>
    <tripinfo id="NS_34" depart="34.00" departLane="2i_0" departPos="4.10" departSpeed="0.00" departDelay="0.00" arrival="119.00" arrivalLane="1o_0" arrivalPos="492.80" arrivalSpeed="10.18" duration="85.00" routeLength="995.90" waitingTime="0.00" waitingCount="0" stopTime="0.00" timeLoss="8.19" rerouteNo="0" devices="tripinfo_NS_34" vType="car" speedFactor="0.93" vaporized=""/>
    <tripinfo id="SN_39" depart="39.00" departLane="3i_0" departPos="4.10" departSpeed="0.00" departDelay="0.00" arrival="123.00" arrivalLane="2o_0" arrivalPos="492.80" arrivalSpeed="9.16" duration="84.00" routeLength="990.53" waitingTime="0.00" waitingCount="0" stopTime="0.00" timeLoss="8.05" rerouteNo="0" devices="tripinfo_SN_39" vType="car" speedFactor="0.94" vaporized=""/>
    <tripinfo id="SN_45" depart="45.00" departLane="3i_0" departPos="4.10" departSpeed="0.00" departDelay="0.00" arrival="123.00" arrivalLane="4o_0" arrivalPos="492.80" arrivalSpeed="10.89" duration="78.00" routeLength="995.90" waitingTime="0.00" waitingCount="0" stopTime="0.00" timeLoss="7.89" rerouteNo="0" devices="tripinfo_SN_45" vType="car" speedFactor="1.01" vaporized=""/>
    <tripinfo id="EW_34" depart="34.00" departLane="4i_0" departPos="4.10" departSpeed="0.00" departDelay="0.00" arrival="128.00" arrivalLane="2o_0" arrivalPos="492.80" arrivalSpeed="10.52" duration="94.00" routeLength="995.70" waitingTime="7.00" waitingCount="2" stopTime="0.00" timeLoss="22.60" rerouteNo="0" devices="tripinfo_EW_34" vType="car" speedFactor="0.99" vaporized=""/>
    <tripinfo id="NS_43" depart="43.00" departLane="2i_0" departPos="10.10" departSpeed="0.00" departDelay="0.00" arrival="128.00" arrivalLane="1o_0" arrivalPos="492.80" arrivalSpeed="10.71" duration="85.00" routeLength="989.90" waitingTime="0.00" waitingCount="0" stopTime="0.00" timeLoss="15.15" rerouteNo="0" devices="tripinfo_NS_43" vType="truck" speedFactor="1.01" vaporized=""/>
    <tripinfo id="WE_48" depart="48.00" departLane="1i_0" departPos="4.10" departSpeed="0.00" departDelay="0.00" arrival="131.00" arrivalLane="3o_0" arrivalPos="492.80" arrivalSpeed="10.03" duration="83.00" routeLength="990.53" waitingTime="1.00" waitingCount="1" stopTime="0.00" timeLoss="10.24" rerouteNo="0" devices="tripinfo_WE_48" vType="car" speedFactor="0.97" vaporized=""/>
    <tripinfo id="EW_36" depart="38.00" departLane="4i_0" departPos="10.10" departSpeed="0.00" departDelay="2.00" arrival="139.00" arrivalLane="1o_0" arrivalPos="492.80" arrivalSpeed="10.01" duration="101.00" routeLength="984.53" waitingTime="3.00" waitingCount="2" stopTime="0.00" timeLoss="25.94" rerouteNo="0" devices="tripinfo_EW_36" vType="truck" speedFactor="0.94" vaporized=""/>
    <tripinfo id="EW_38" depart="42.00" departLane="4i_0" departPos="4.10" departSpeed="0.00" departDelay="4.00" arrival="143.00" arrivalLane="3o_0" arrivalPos="492.80" arrivalSpeed="10.11" duration="101.00" routeLength="995.90" waitingTime="1.00" waitingCount="1" stopTime="0.00" timeLoss="25.34" rerouteNo="0" devices="tripinfo_EW_38" vType="car" speedFactor="0.94" vaporized=""/>
    <tripinfo id="EW_42" depart="45.00" departLane="4i_0" departPos="4.10" departSpeed="0.00" departDelay="3.00" arrival="145.00" arrivalLane="3o_0" arrivalPos="492.80" arrivalSpeed="12.78" duration="100.00" routeLength="995.90" waitingTime="1.00" waitingCount="1" stopTime="0.00" timeLoss="38.19" rerouteNo="0" devices="tripinfo_EW_42" vType="car" speedFactor="1.16" vaporized=""/>
    <tripinfo id="SN_50" depart="50.00" departLane="3i_0" departPos="4.10" departSpeed="0.00" departDelay="0.00" arrival="145.00" arrivalLane="4o_0" arrivalPos="492.80" arrivalSpeed="8.76" duration="95.00" routeLength="995.90" waitingTime="0.00" waitingCount="0" stopTime="0.00" timeLoss="9.18" rerouteNo="0" devices="tripinfo_SN_50" vType="car" speedFactor="0.83" vaporized=""/>
    <tripinfo id="EW_52" depart="52.00" departLane="4i_0" departPos="4.10" departSpeed="0.00" departDelay="0.00" arrival="149.00" arrivalLane="3o_0" arrivalPos="492.80" arrivalSpeed="9.78" duration="97.00" routeLength="995.90" waitingTime="0.00" waitingCount="0" stopTime="0.00" timeLoss="19.76" rerouteNo="0" devices="tripinfo_EW_52" vType="car" speedFactor="0.92" vaporized=""/>
    <tripinfo id="EW_61" depart="61.00" departLane="4i_0" departPos="4.10" departSpeed="0.00" departDelay="0.00" arrival="151.00" arrivalLane="2o_0" arrivalPos="492.80" arrivalSpeed="10.03" duration="90.00" routeLength="995.70" waitingTime="0.00" waitingCount="0" stopTime="0.00" timeLoss="13.38" rerouteNo="0" devices="tripinfo_EW_61" vType="car" speedFactor="0.93" vaporized=""/>
    <tripinfo id="EW_65" depart="65.00" departLane="4i_0" departPos="4.10" departSpeed="0.00" departDelay="0.00" arrival="152.00" arrivalLane="2o_0" arrivalPos="492.80" arrivalSpeed="11.01" duration="87.00" routeLength="995.70" waitingTime="0.00" waitingCount="0" stopTime="0.00" timeLoss="25.73" rerouteNo="0" devices="tripinfo_EW_65" vType="car" speedFactor="1.15" vaporized=""/>
    <tripinfo id="EW_73" depart="73.00" departLane="4i_0" departPos="4.10" departSpeed="0.00" departDelay="0.00" arrival="154.00" arrivalLane="2o_0" arrivalPos="492.80" arrivalSpeed="10.73" duration="81.00" routeLength="995.70" waitingTime="0.00" waitingCount="0" stopTime="0.00" timeLoss="10.51" rerouteNo="0" devices="tripinfo_EW_73" vType="car" speedFactor="1.01" vaporized=""/>
    <tripinfo id="SN_51" depart="53.00" departLane="3i_0" departPos="4.10" departSpeed="0.00" departDelay="2.00" arrival="164.00" arrivalLane="1o_0" arrivalPos="492.80" arrivalSpeed="9.19" duration="111.00" routeLength="995.70" waitingTime="16.00" waitingCount="1" stopTime="0.00" timeLoss="29.41" rerouteNo="0" devices="tripinfo_SN_51" vType="car" speedFactor="0.87" vaporized=""/>
    <tripinfo id="SN_53" depart="56.00" departLane="3i_0" departPos="4.10" departSpeed="0.00" departDelay="3.00" arrival="165.00" arrivalLane="1o_0" arrivalPos="492.80" arrivalSpeed="10.12" duration="109.00" routeLength="995.70" waitingTime="14.00" waitingCount="1" stopTime="0.00" timeLoss="34.53" rerouteNo="0" devices="tripinfo_SN_53" vType="car" speedFactor="0.95" vaporized=""/>
    <tripinfo id="SN_55" depart="58.00" departLane="3i_0" departPos="4.10" departSpeed="0.00" departDelay="3.00" arrival="167.00" arrivalLane="1o_0" arrivalPos="492.80" arrivalSpeed="11.36" duration="109.00" routeLength="995.70" waitingTime="15.00" waitingCount="2" stopTime="0.00" timeLoss="46.25" rerouteNo="0" devices="tripinfo_SN_55" vType="car" speedFactor="1.13" vaporized=""/>
    <tripinfo id="SN_64" depart="64.00" departLane="3i_0" departPos="10.10" departSpeed="0.00" departDelay="0.00" arrival="170.00" arrivalLane="1o_0" arrivalPos="492.80" arrivalSpeed="11.76" duration="106.00" routeLength="989.70" waitingTime="7.00" waitingCount="1" stopTime="0.00" timeLoss="39.40" rerouteNo="0" devices="tripinfo_SN_64" vType="truck" speedFactor="1.09" vaporized=""/>
    <tripinfo id="SN_81" depart="81.00" departLane="3i_0" departPos="4.10" departSpeed="0.00" departDelay="0.00" arrival="172.00" arrivalLane="1o_0" arrivalPos="492.80" arrivalSpeed="10.62" duration="91.00" routeLength="995.70" waitingTime="0.00" waitingCount="0" stopTime="0.00" timeLoss="21.45" rerouteNo="0" devices="tripinfo_SN_81" vType="car" speedFactor="1.02" vaporized=""/>
    <tripinfo id="EW_90" depart="90.00" departLane="4i_0" departPos="10.10" departSpeed="0.00" departDelay="0.00" arrival="174.00" arrivalLane="3o_0" arrivalPos="492.80" arrivalSpeed="10.64" duration="84.00" routeLength="989.90" waitingTime="0.00" waitingCount="0" stopTime="0.00" timeLoss="12.41" rerouteNo="0" devices="tripinfo_EW_90" vType="truck" speedFactor="0.99" vaporized=""/>
    <tripinfo id="WE_94" depart="94.00" departLane="1i_0" departPos="4.10" departSpeed="0.00" departDelay="0.00" arrival="178.00" arrivalLane="2o_0" arrivalPos="492.80" arrivalSpeed="11.85" duration="84.00" routeLength="995.90" waitingTime="8.00" waitingCount="1" stopTime="0.00" timeLoss="23.98" rerouteNo="0" devices="tripinfo_WE_94" vType="car" speedFactor="1.18" vaporized=""/>
    <tripinfo id="NS_78" depart="78.00" departLane="2i_0" departPos="10.10" departSpeed="0.00" departDelay="0.00" arrival="185.00" arrivalLane="3o_0" arrivalPos="492.80" arrivalSpeed="11.89" duration="107.00" routeLength="989.70" waitingTime="18.00" waitingCount="1" stopTime="0.00" timeLoss="40.89" rerouteNo="0" devices="tripinfo_NS_78" vType="truck" speedFactor="1.09" vaporized=""/>
    <tripinfo id="NS_50" depart="50.00" departLane="2i_0" departPos="4.10" departSpeed="0.00" departDelay="0.00" arrival="191.00" arrivalLane="1o_0" arrivalPos="492.80" arrivalSpeed="9.04" duration="141.00" routeLength="995.90" waitingTime="50.00" waitingCount="1" stopTime="0.00" timeLoss="61.12" rerouteNo="0" devices="tripinfo_NS_50" vType="car" speedFactor="0.89" vaporized=""/>
    <tripinfo id="NS_79" depart="82.00" departLane="2i_0" departPos="4.10" departSpeed="0.00" departDelay="3.00" arrival="194.00" arrivalLane="4o_0" arrivalPos="492.80" arrivalSpeed="10.67" duration="112.00" routeLength="990.53" waitingTime="17.00" waitingCount="1" stopTime="0.00" timeLoss="41.08" rerouteNo="0" devices="tripinfo_NS_79" vType="car" speedFactor="0.99" vaporized=""/>
    <tripinfo id="SN_109" depart="109.00" departLane="3i_0" departPos="4.10" departSpeed="0.00" departDelay="0.00" arrival="197.00" arrivalLane="1o_0" arrivalPos="492.80" arrivalSpeed="10.49" duration="88.00" routeLength="995.70" waitingTime="0.00" waitingCount="0" stopTime="0.00" timeLoss="13.95" rerouteNo="0" devices="tripinfo_SN_109" vType="car" speedFactor="0.96" vaporized=""/>
    <tripinfo id="EW_109" depart="109.00" departLane="4i_0" departPos="4.10" departSpeed="0.00" departDelay="0.00" arrival="198.00" arrivalLane="3o_0" arrivalPos="492.80" arrivalSpeed="9.19" duration="89.00" routeLength="995.90" waitingTime="0.00" waitingCount="0" stopTime="0.00" timeLoss="9.84" rerouteNo="0" devices="tripinfo_EW_109" vType="car" speedFactor="0.90" vaporized=""/>
    <tripinfo id="WE_122" depart="122.00" departLane="1i_0" departPos="4.10" departSpeed="0.00" departDelay="0.00" arrival="199.00" arrivalLane="4o_0" arrivalPos="492.80" arrivalSpeed="11.58" duration="77.00" routeLength="995.70" waitingTime="0.00" waitingCount="0" stopTime="0.00" timeLoss="11.54" rerouteNo="0" devices="tripinfo_WE_122" vType="car" speedFactor="1.09" vaporized=""/>
    <tripinfo id="NS_106" depart="106.00" departLane="2i_0" departPos="10.10" departSpeed="0.00" departDelay="0.00" arrival="200.00" arrivalLane="3o_0" arrivalPos="492.80" arrivalSpeed="10.44" duration="94.00" routeLength="989.70" waitingTime="0.00" waitingCount="0" stopTime="0.00" timeLoss="26.41" rerouteNo="0" devices="tripinfo_NS_106" vType="truck" speedFactor="1.05" vaporized=""/>
    <tripinfo id="NS_109" depart="111.00" departLane="2i_0" departPos="10.10" departSpeed="0.00" departDelay="2.00" arrival="202.00" arrivalLane="3o_0" arrivalPos="492.80" arrivalSpeed="11.02" duration="91.00" routeLength="989.70" waitingTime="0.00" waitingCount="0" stopTime="0.00" timeLoss="21.81" rerouteNo="0" devices="tripinfo_NS_109" vType="truck" speedFactor="1.02" vaporized=""/>
    <tripinfo id="SN_124" depart="124.00" departLane="3i_0" departPos="4.10" departSpeed="0.00" departDelay="0.00" arrival="203.00" arrivalLane="4o_0" arrivalPos="492.80" arrivalSpeed="10.47" duration="79.00" routeLength="995.90" waitingTime="0.00" waitingCount="0" stopTime="0.00" timeLoss="10.21" rerouteNo="0" devices="tripinfo_SN_124" vType="car" speedFactor="1.04" vaporized=""/>
    <tripinfo id="NS_131" depart="131.00" departLane="2i_0" departPos="4.10" departSpeed="0.00" departDelay="0.00" arrival="212.00" arrivalLane="3o_0" arrivalPos="492.80" arrivalSpeed="10.31" duration="81.00" routeLength="995.70" waitingTime="0.00" waitingCount="0" stopTime="0.00" timeLoss="12.67" rerouteNo="0" devices="tripinfo_NS_131" vType="car" speedFactor="1.04" vaporized=""/>
    <tripinfo id="WE_134" depart="134.00" departLane="1i_0" departPos="4.10" departSpeed="0.00" departDelay="0.00" arrival="216.00" arrivalLane="2o_0" arrivalPos="492.80" arrivalSpeed="10.08" duration="82.00" routeLength="995.90" waitingTime="1.00" waitingCount="1" stopTime="0.00" timeLoss="10.93" rerouteNo="0" devices="tripinfo_WE_134" vType="car" speedFactor="1.00" vaporized=""/>
    <tripinfo id="SN_132" depart="132.00" departLane="3i_0" departPos="10.10" departSpeed="0.00" departDelay="0.00" arrival="217.00" arrivalLane="1o_0" arrivalPos="492.80" arrivalSpeed="11.18" duration="85.00" routeLength="989.70" waitingTime="0.00" waitingCount="0" stopTime="0.00" timeLoss="16.63" rerouteNo="0" devices="tripinfo_SN_132" vType="truck" speedFactor="1.04" vaporized=""/>
    <tripinfo id="NS_142" depart="142.00" departLane="2i_0" departPos="4.10" departSpeed="0.00" departDelay="0.00" arrival="219.00" arrivalLane="1o_0" arrivalPos="492.80" arrivalSpeed="12.81" duration="77.00" routeLength="995.90" waitingTime="2.00" waitingCount="1" stopTime="0.00" timeLoss="16.15" rerouteNo="0" devices="tripinfo_NS_142" vType="car" speedFactor="1.17" vaporized=""/>
    <tripinfo id="WE_139" depart="139.00" departLane="1i_0" departPos="4.10" departSpeed="0.00" departDelay="0.00" arrival="231.00" arrivalLane="2o_0" arrivalPos="492.80" arrivalSpeed="9.42" duration="92.00" routeLength="995.90" waitingTime="1.00" waitingCount="1" stopTime="0.00" timeLoss="13.51" rerouteNo="0" devices="tripinfo_WE_139" vType="car" speedFactor="0.90" vaporized=""/>
    <tripinfo id="EW_152" depart="152.00" departLane="4i_0" departPos="4.10" departSpeed="0.00" departDelay="0.00" arrival="231.00" arrivalLane="1o_0" arrivalPos="492.80" arrivalSpeed="10.07" duration="79.00" routeLength="990.53" waitingTime="0.00" waitingCount="0" stopTime="0.00" timeLoss="8.19" rerouteNo="0" devices="tripinfo_EW_152" vType="car" speedFactor="1.00" vaporized=""/>
    <tripinfo id="SN_150" depart="150.00" departLane="3i_0" departPos="4.10" departSpeed="0.00" departDelay="0.00" arrival="232.00" arrivalLane="1o_0" arrivalPos="492.80" arrivalSpeed="11.12" duration="82.00" routeLength="995.70" waitingTime="0.00" waitingCount="0" stopTime="0.00" timeLoss="17.44" rerouteNo="0" devices="tripinfo_SN_150" vType="car" speedFactor="1.10" vaporized=""/>
    <tripinfo id="WE_140" depart="142.00" departLane="1i_0" departPos="4.10" departSpeed="0.00" departDelay="2.00" arrival="234.00" arrivalLane="2o_0" arrivalPos="492.80" arrivalSpeed="9.73" duration="92.00" routeLength="995.90" waitingTime="0.00" waitingCount="0" stopTime="0.00" timeLoss="11.38" rerouteNo="0" devices="tripinfo_WE_140" vType="car" speedFactor="0.88" vaporized=""/>
    <tripinfo id="WE_142" depart="144.00" departLane="1i_0" departPos="4.10" departSpeed="0.00" departDelay="2.00" arrival="237.00" arrivalLane="3o_0" arrivalPos="492.80" arrivalSpeed="9.41" duration="93.00" routeLength="990.53" waitingTime="0.00" waitingCount="0" stopTime="0.00" timeLoss="10.72" rerouteNo="0" devices="tripinfo_WE_142" vType="car" speedFactor="0.85" vaporized=""/>
    <tripinfo id="WE_145" depart="147.00" departLane="1i_0" departPos="4.10" departSpeed="0.00" departDelay="2.00" arrival="239.00" arrivalLane="3o_0" arrivalPos="492.80" arrivalSpeed="10.47" duration="92.00" routeLength="990.53" waitingTime="0.00" waitingCount="0" stopTime="0.00" timeLoss="22.43" rerouteNo="0" devices="tripinfo_WE_145" vType="car" speedFactor="1.02" vaporized=""/>
    <tripinfo id="SN_140" depart="140.00" departLane="3i_0" departPos="4.10" departSpeed="0.00" departDelay="0.00" arrival="240.00" arrivalLane="2o_0" arrivalPos="492.80" arrivalSpeed="9.31" duration="100.00" routeLength="990.53" waitingTime="3.00" waitingCount="2" stopTime="0.00" timeLoss="17.50" rerouteNo="0" devices="tripinfo_SN_140" vType="car" speedFactor="0.85" vaporized=""/>
    <tripinfo id="SN_153" depart="153.00" departLane="3i_0" departPos="4.10" departSpeed="0.00" departDelay="0.00" arrival="243.00" arrivalLane="2o_0" arrivalPos="492.80" arrivalSpeed="9.93" duration="90.00" routeLength="990.53" waitingTime="0.00" waitingCount="0" stopTime="0.00" timeLoss="10.83" rerouteNo="0" devices="tripinfo_SN_153" vType="car" speedFactor="0.90" vaporized=""/>
    <tripinfo id="EW_153" depart="154.00" departLane="4i_0" departPos="4.10" departSpeed="0.00" departDelay="1.00" arrival="244.00" arrivalLane="2o_0" arrivalPos="492.80" arrivalSpeed="10.48" duration="90.00" routeLength="995.70" waitingTime="0.00" waitingCount="0" stopTime="0.00" timeLoss="19.11" rerouteNo="0" devices="tripinfo_EW_153" vType="car" speedFactor="1.00" vaporized=""/>
    <tripinfo id="WE_162" depart="165.00" departLane="1i_0" departPos="4.10" departSpeed="0.00" departDelay="3.00" arrival="244.00" arrivalLane="3o_0" arrivalPos="492.80" arrivalSpeed="10.65" duration="79.00" routeLength="990.53" waitingTime="0.00" waitingCount="0" stopTime="0.00" timeLoss="10.14" rerouteNo="0" devices="tripinfo_WE_162" vType="car" speedFactor="1.02" vaporized=""/>
    <tripinfo id="WE_157" depart="157.00" departLane="1i_0" departPos="4.10" departSpeed="0.00" departDelay="0.00" arrival="246.00" arrivalLane="2o_0" arrivalPos="492.80" arrivalSpeed="11.60" duration="89.00" routeLength="995.90" waitingTime="4.00" waitingCount="2" stopTime="0.00" timeLoss="26.77" rerouteNo="0" devices="tripinfo_WE_157" vType="car" speedFactor="1.14" vaporized=""/>
    <tripinfo id="NS_169" depart="169.00" departLane="2i_0" departPos="4.10" departSpeed="0.00" departDelay="0.00" arrival="247.00" arrivalLane="1o_0" arrivalPos="492.80" arrivalSpeed="12.42" duration="78.00" routeLength="995.90" waitingTime="2.00" waitingCount="1" stopTime="0.00" timeLoss="14.67" rerouteNo="0" devices="tripinfo_NS_169" vType="car" speedFactor="1.12" vaporized=""/>
    <tripinfo id="WE_166" depart="170.00" departLane="1i_0" departPos="4.10" departSpeed="0.00" departDelay="4.00" arrival="249.00" arrivalLane="2o_0" arrivalPos="492.80" arrivalSpeed="11.32" duration="79.00" routeLength="995.90" waitingTime="1.00" waitingCount="1" stopTime="0.00" timeLoss="13.37" rerouteNo="0" devices="tripinfo_WE_166" vType="car" speedFactor="1.08" vaporized=""/>
    <tripinfo id="SN_164" depart="164.00" departLane="3i_0" departPos="4.10" departSpeed="0.00" departDelay="0.00" arrival="250.00" arrivalLane="4o_0" arrivalPos="492.80" arrivalSpeed="10.16" duration="86.00" routeLength="995.90" waitingTime="1.00" waitingCount="1" stopTime="0.00" timeLoss="12.69" rerouteNo="0" devices="tripinfo_SN_164" vType="car" speedFactor="0.97" vaporized=""/>
    <tripinfo id="SN_172" depart="174.00" departLane="3i_0" departPos="4.10" departSpeed="0.00" departDelay="2.00" arrival="255.00" arrivalLane="4o_0" arrivalPos="492.80" arrivalSpeed="10.61" duration="81.00" routeLength="995.90" waitingTime="0.00" waitingCount="0" stopTime="0.00" timeLoss="10.75" rerouteNo="0" devices="tripinfo_SN_172" vType="car" speedFactor="1.02" vaporized=""/>
    <tripinfo id="WE_174" depart="174.00" departLane="1i_0" departPos="4.10" departSpeed="0.00" departDelay="0.00" arrival="259.00" arrivalLane="2o_0" arrivalPos="492.80" arrivalSpeed="10.14" duration="85.00" routeLength="995.90" waitingTime="0.00" waitingCount="0" stopTime="0.00" timeLoss="13.35" rerouteNo="0" devices="tripinfo_WE_174" vType="car" speedFactor="0.99" vaporized=""/>
    <tripinfo id="EW_185" depart="185.00" departLane="4i_0" departPos="4.10" departSpeed="0.00" departDelay="0.00" arrival="263.00" arrivalLane="1o_0" arrivalPos="492.80" arrivalSpeed="10.99" duration="78.00" routeLength="990.53" waitingTime="0.00" waitingCount="0" stopTime="0.00" timeLoss="8.88" rerouteNo="0" devices="tripinfo_EW_185" vType="car" speedFactor="1.02" vaporized=""/>
    <tripinfo id="NS_183" depart="183.00" departLane="2i_0" departPos="4.10" departSpeed="0.00" departDelay="0.00" arrival="264.00" arrivalLane="3o_0" arrivalPos="492.80" arrivalSpeed="10.20" duration="81.00" routeLength="995.70" waitingTime="0.00" waitingCount="0" stopTime="0.00" timeLoss="11.51" rerouteNo="0" devices="tripinfo_NS_183" vType="car" speedFactor="1.02" vaporized=""/>
    <tripinfo id="SN_175" depart="177.00" departLane="3i_0" departPos="4.10" departSpeed="0.00" departDelay="2.00" arrival="266.00" arrivalLane="4o_0" arrivalPos="492.80" arrivalSpeed="9.83" duration="89.00" routeLength="995.90" waitingTime="0.00" waitingCount="0" stopTime="0.00" timeLoss="12.86" rerouteNo="0" devices="tripinfo_SN_175" vType="car" speedFactor="0.94" vaporized=""/>
    <tripinfo id="SN_176" depart="180.00" departLane="3i_0" departPos="4.10" departSpeed="0.00" departDelay="4.00" arrival="272.00" arrivalLane="2o_0" arrivalPos="492.80" arrivalSpeed="8.72" duration="92.00" routeLength="990.53" waitingTime="0.00" waitingCount="0" stopTime="0.00" timeLoss="11.66" rerouteNo="0" devices="tripinfo_SN_176" vType="car" speedFactor="0.88" vaporized=""/>
    <tripinfo id="SN_179" depart="182.00" departLane="3i_0" departPos="4.10" departSpeed="0.00" departDelay="3.00" arrival="273.00" arrivalLane="1o_0" arrivalPos="492.80" arrivalSpeed="9.26" duration="91.00" routeLength="995.70" waitingTime="1.00" waitingCount="1" stopTime="0.00" timeLoss="13.20" rerouteNo="0" devices="tripinfo_SN_179" vType="car" speedFactor="0.91" vaporized=""/>
    <tripinfo id="SN_181" depart="186.00" departLane="3i_0" departPos="4.10" departSpeed="0.00" departDelay="5.00" arrival="274.00" arrivalLane="1o_0" arrivalPos="492.80" arrivalSpeed="10.86" duration="88.00" routeLength="995.70" waitingTime="0.00" waitingCount="0" stopTime="0.00" timeLoss="20.19" rerouteNo="0" devices="tripinfo_SN_181" vType="car" speedFactor="1.04" vaporized=""/>
    <tripinfo id="WE_178" depart="178.00" departLane="1i_0" departPos="4.10" departSpeed="0.00" departDelay="0.00" arrival="275.00" arrivalLane="4o_0" arrivalPos="492.80" arrivalSpeed="10.05" duration="97.00" routeLength="995.70" waitingTime="5.00" waitingCount="1" stopTime="0.00" timeLoss="18.69" rerouteNo="0" devices="tripinfo_WE_178" vType="car" speedFactor="0.91" vaporized=""/>
    <tripinfo id="SN_190" depart="190.00" departLane="3i_0" departPos="4.10" departSpeed="0.00" departDelay="0.00" arrival="276.00" arrivalLane="1o_0" arrivalPos="492.80" arrivalSpeed="11.23" duration="86.00" routeLength="995.70" waitingTime="0.00" waitingCount="0" stopTime="0.00" timeLoss="18.94" rerouteNo="0" devices="tripinfo_SN_190" vType="car" speedFactor="1.06" vaporized=""/>
    <tripinfo id="NS_187" depart="187.00" departLane="2i_0" departPos="4.10" departSpeed="0.00" departDelay="0.00" arrival="278.00" arrivalLane="3o_0" arrivalPos="492.80" arrivalSpeed="9.97" duration="91.00" routeLength="995.70" waitingTime="6.00" waitingCount="1" stopTime="0.00" timeLoss="18.42" rerouteNo="0" devices="tripinfo_NS_187" vType="car" speedFactor="0.97" vaporized=""/>
    <tripinfo id="EW_199" depart="199.00" departLane="4i_0" departPos="4.10" departSpeed="0.00" departDelay="0.00" arrival="283.00" arrivalLane="1o_0" arrivalPos="492.80" arrivalSpeed="10.94" duration="84.00" routeLength="990.53" waitingTime="2.00" waitingCount="1" stopTime="0.00" timeLoss="12.54" rerouteNo="0" devices="tripinfo_EW_199" vType="car" speedFactor="0.98" vaporized=""/>
    <tripinfo id="NS_190" depart="190.00" departLane="2i_0" departPos="10.10" departSpeed="0.00" departDelay="0.00" arrival="284.00" arrivalLane="3o_0" arrivalPos="492.80" arrivalSpeed="10.40" duration="94.00" routeLength="989.70" waitingTime="0.00" waitingCount="0" stopTime="0.00" timeLoss="20.91" rerouteNo="0" devices="tripinfo_NS_190" vType="truck" speedFactor="0.97" vaporized=""/>
    <tripinfo id="SN_206" depart="206.00" departLane="3i_0" departPos="4.10" departSpeed="0.00" departDelay="0.00" arrival="284.00" arrivalLane="2o_0" arrivalPos="492.80" arrivalSpeed="10.66" duration="78.00" routeLength="990.53" waitingTime="1.00" waitingCount="1" stopTime="0.00" timeLoss="10.12" rerouteNo="0" devices="tripinfo_SN_206" vType="car" speedFactor="1.03" vaporized=""/>