<?xml version="1.0" encoding="UTF-8"?>

<!-- generated on 2024-05-04 20:25:11 by Eclipse SUMO sumo Version 1.19.0
<configuration xmlns:xsi="http://www.w3.org/2001/XMLSchema-instance" xsi:noNamespaceSchemaLocation="http://sumo.dlr.de/xsd/sumoConfiguration.xsd">

    <input>
        <net-file value="test5.net.xml"/>
        <route-files value="route_gen.rou.xml"/>
    </input>

    <output>
        <tripinfo-output value="tripinfo_epi795.xml"/>
    </output>

    <report>
        <no-warnings value="true"/>
    </report>

    <traci_server>
        <remote-port value="47759"/>
    </traci_server>

</configuration>
-->

<tripinfos xmlns:xsi="http://www.w3.org/2001/XMLSchema-instance" xsi:noNamespaceSchemaLocation="http://sumo.dlr.de/xsd/tripinfo_file.xsd">
    <tripinfo id="EW_3" depart="3.00" departLane="4i_0" departPos="4.10" departSpeed="0.00" departDelay="0.00" arrival="82.00" arrivalLane="3o_0" arrivalPos="492.80" arrivalSpeed="10.93" duration="79.00" routeLength="995.90" waitingTime="0.00" waitingCount="0" stopTime="0.00" timeLoss="11.53" rerouteNo="0" devices="tripinfo_EW_3" vType="car" speedFactor="1.06" vaporized=""/>
    <tripinfo id="WE_6" depart="6.00" departLane="1i_0" departPos="4.10" departSpeed="0.00" departDelay="0.00" arrival="84.00" arrivalLane="3o_0" arrivalPos="492.80" arrivalSpeed="11.91" duration="78.00" routeLength="990.53" waitingTime="3.00" waitingCount="1" stopTime="0.00" timeLoss="13.04" rerouteNo="0" devices="tripinfo_WE_6" vType="car" speedFactor="1.08" vaporized=""/>
    <tripinfo id="NS_5" depart="5.00" departLane="2i_0" departPos="4.10" departSpeed="0.00" departDelay="0.00" arrival="87.00" arrivalLane="1o_0" arrivalPos="492.80" arrivalSpeed="10.72" duration="82.00" routeLength="995.90" waitingTime="0.00" waitingCount="0" stopTime="0.00" timeLoss="11.31" rerouteNo="0" devices="tripinfo_NS_5" vType="car" speedFactor="1.01" vaporized=""/>
    <tripinfo id="NS_11" depart="11.00" departLane="2i_0" departPos="4.10" departSpeed="0.00" departDelay="0.00" arrival="88.00" arrivalLane="1o_0" arrivalPos="492.80" arrivalSpeed="11.40" duration="77.00" routeLength="995.90" waitingTime="0.00" waitingCount="0" stopTime="0.00" timeLoss="8.38" rerouteNo="0" devices="tripinfo_NS_11" vType="car" speedFactor="1.03" vaporized=""/>
    <tripinfo id="EW_4" depart="6.00" departLane="4i_0" departPos="4.10" departSpeed="0.00" departDelay="2.00" arrival="95.00" arrivalLane="2o_0" arrivalPos="492.80" arrivalSpeed="10.16" duration="89.00" routeLength="995.70" waitingTime="1.00" waitingCount="1" stopTime="0.00" timeLoss="13.50" rerouteNo="0" devices="tripinfo_EW_4" vType="car" speedFactor="0.94" vaporized=""/>
    <tripinfo id="NS_13" depart="14.00" departLane="2i_0" departPos="4.10" departSpeed="0.00" departDelay="1.00" arrival="109.00" arrivalLane="3o_0" arrivalPos="492.80" arrivalSpeed="8.78" duration="95.00" routeLength="995.70" waitingTime="0.00" waitingCount="0" stopTime="0.00" timeLoss="9.66" rerouteNo="0" devices="tripinfo_NS_13" vType="car" speedFactor="0.83" vaporized=""/>
    <tripinfo id="NS_14" depart="16.00" departLane="2i_0" departPos="4.10" departSpeed="0.00" departDelay="2.00" arrival="111.00" arrivalLane="3o_0" arrivalPos="492.80" arrivalSpeed="11.06" duration="95.00" routeLength="995.70" waitingTime="1.00" waitingCount="1" stopTime="0.00" timeLoss="26.76" rerouteNo="0" devices="tripinfo_NS_14" vType="car" speedFactor="1.05" vaporized=""/>
    <tripinfo id="SN_21" depart="21.00" departLane="3i_0" departPos="4.10" departSpeed="0.00" departDelay="0.00" arrival="114.00" arrivalLane="4o_0" arrivalPos="492.80" arrivalSpeed="8.66" duration="93.00" routeLength="995.90" waitingTime="1.00" waitingCount="1" stopTime="0.00" timeLoss="12.84" rerouteNo="0" devices="tripinfo_SN_21" vType="car" speedFactor="0.89" vaporized=""/>
    <tripinfo id="NS_34" depart="34.00" departLane="2i_0" departPos="4.10" departSpeed="0.00" departDelay="0.00" arrival="118.00" arrivalLane="4o_0" arrivalPos="492.80" arrivalSpeed="9.75" duration="84.00" routeLength="990.53" waitingTime="0.00" waitingCount="0" stopTime="0.00" timeLoss="8.30" rerouteNo="0" devices="tripinfo_NS_34" vType="car" speedFactor="0.94" vaporized=""/>
    <tripinfo id="NS_40" depart="40.00" departLane="2i_0" departPos="4.10" departSpeed="0.00" departDelay="0.00" arrival="120.00" arrivalLane="1o_0" arrivalPos="492.80" arrivalSpeed="11.41" duration="80.00" routeLength="995.90" waitingTime="2.00" waitingCount="1" stopTime="0.00" timeLoss="14.41" rerouteNo="0" devices="tripinfo_NS_40" vType="car" speedFactor="1.09" vaporized=""/>
    <tripinfo id="NS_48" depart="48.00" departLane="2i_0" departPos="4.10" departSpeed="0.00" departDelay="0.00" arrival="126.00" arrivalLane="1o_0" arrivalPos="492.80" arrivalSpeed="11.59" duration="78.00" routeLength="995.90" waitingTime="0.00" waitingCount="0" stopTime="0.00" timeLoss="9.89" rerouteNo="0" devices="tripinfo_NS_48" vType="car" speedFactor="1.05" vaporized=""/>
    <tripinfo id="NS_49" depart="51.00" departLane="2i_0" departPos="4.10" departSpeed="0.00" departDelay="2.00" arrival="128.00" arrivalLane="1o_0" arrivalPos="492.80" arrivalSpeed="11.94" duration="77.00" routeLength="995.90" waitingTime="0.00" waitingCount="0" stopTime="0.00" timeLoss="13.21" rerouteNo="0" devices="tripinfo_NS_49" vType="car" speedFactor="1.12" vaporized=""/>
    <tripinfo id="WE_36" depart="36.00" departLane="1i_0" departPos="4.10" departSpeed="0.00" departDelay="0.00" arrival="131.00" arrivalLane="2o_0" arrivalPos="492.80" arrivalSpeed="9.36" duration="95.00" routeLength="995.90" waitingTime="0.00" waitingCount="0" stopTime="0.00" timeLoss="11.79" rerouteNo="0" devices="tripinfo_WE_36" vType="car" speedFactor="0.86" vaporized=""/>
    <tripinfo id="EW_42" depart="42.00" departLane="4i_0" departPos="4.10" departSpeed="0.00" departDelay="0.00" arrival="132.00" arrivalLane="2o_0" arrivalPos="492.80" arrivalSpeed="11.40" duration="90.00" routeLength="995.70" waitingTime="1.00" waitingCount="1" stopTime="0.00" timeLoss="21.01" rerouteNo="0" devices="tripinfo_EW_42" vType="car" speedFactor="1.03" vaporized=""/>
    <tripinfo id="EW_55" depart="55.00" departLane="4i_0" departPos="4.10" departSpeed="0.00" departDelay="0.00" arrival="134.00" arrivalLane="2o_0" arrivalPos="492.80" arrivalSpeed="12.72" duration="79.00" routeLength="995.70" waitingTime="0.00" waitingCount="0" stopTime="0.00" timeLoss="17.74" rerouteNo="0" devices="tripinfo_EW_55" vType="car" speedFactor="1.16" vaporized=""/>
    <tripinfo id="EW_52" depart="52.00" departLane="4i_0" departPos="4.10" departSpeed="0.00" departDelay="0.00" arrival="136.00" arrivalLane="3o_0" arrivalPos="492.80" arrivalSpeed="9.60" duration="84.00" routeLength="995.90" waitingTime="0.00" waitingCount="0" stopTime="0.00" timeLoss="8.79" rerouteNo="0" devices="tripinfo_EW_52" vType="car" speedFactor="0.94" vaporized=""/>
    <tripinfo id="WE_54" depart="54.00" departLane="1i_0" departPos="4.10" departSpeed="0.00" departDelay="0.00" arrival="140.00" arrivalLane="4o_0" arrivalPos="492.80" arrivalSpeed="9.92" duration="86.00" routeLength="995.70" waitingTime="0.00" waitingCount="0" stopTime="0.00" timeLoss="10.09" rerouteNo="0" devices="tripinfo_WE_54" vType="car" speedFactor="0.94" vaporized=""/>
    <tripinfo id="SN_49" depart="49.00" departLane="3i_0" departPos="4.10" departSpeed="0.00" departDelay="0.00" arrival="141.00" arrivalLane="1o_0" arrivalPos="492.80" arrivalSpeed="10.95" duration="92.00" routeLength="995.70" waitingTime="7.00" waitingCount="1" stopTime="0.00" timeLoss="19.98" rerouteNo="0" devices="tripinfo_SN_49" vType="car" speedFactor="0.99" vaporized=""/>
    <tripinfo id="NS_50" depart="55.00" departLane="2i_0" departPos="10.10" departSpeed="0.00" departDelay="5.00" arrival="144.00" arrivalLane="3o_0" arrivalPos="492.80" arrivalSpeed="10.27" duration="89.00" routeLength="989.70" waitingTime="0.00" waitingCount="0" stopTime="0.00" timeLoss="15.58" rerouteNo="0" devices="tripinfo_NS_50" vType="truck" speedFactor="0.96" vaporized=""/>
    <tripinfo id="SN_56" depart="56.00" departLane="3i_0" departPos="4.10" departSpeed="0.00" departDelay="0.00" arrival="146.00" arrivalLane="2o_0" arrivalPos="492.80" arrivalSpeed="10.20" duration="90.00" routeLength="990.53" waitingTime="7.00" waitingCount="2" stopTime="0.00" timeLoss="20.92" rerouteNo="0" devices="tripinfo_SN_56" vType="car" speedFactor="1.02" vaporized=""/>
    <tripinfo id="SN_57" depart="58.00" departLane="3i_0" departPos="4.10" departSpeed="0.00" departDelay="1.00" arrival="149.00" arrivalLane="2o_0" arrivalPos="492.80" arrivalSpeed="10.73" duration="91.00" routeLength="990.53" waitingTime="3.00" waitingCount="1" stopTime="0.00" timeLoss="20.99" rerouteNo="0" devices="tripinfo_SN_57" vType="car" speedFactor="1.01" vaporized=""/>
    <tripinfo id="WE_71" depart="71.00" departLane="1i_0" departPos="4.10" departSpeed="0.00" departDelay="0.00" arrival="151.00" arrivalLane="2o_0" arrivalPos="492.80" arrivalSpeed="11.57" duration="80.00" routeLength="995.90" waitingTime="0.00" waitingCount="0" stopTime="0.00" timeLoss="18.07" rerouteNo="0" devices="tripinfo_WE_71" vType="car" speedFactor="1.15" vaporized=""/>
    <tripinfo id="NS_51" depart="59.00" departLane="2i_0" departPos="4.10" departSpeed="0.00" departDelay="8.00" arrival="152.00" arrivalLane="4o_0" arrivalPos="492.80" arrivalSpeed="9.01" duration="93.00" routeLength="990.53" waitingTime="0.00" waitingCount="0" stopTime="0.00" timeLoss="12.22" rerouteNo="0" devices="tripinfo_NS_51" vType="car" speedFactor="0.88" vaporized=""/>
    <tripinfo id="WE_59" depart="59.00" departLane="1i_0" departPos="4.10" departSpeed="0.00" departDelay="0.00" arrival="154.00" arrivalLane="4o_0" arrivalPos="492.80" arrivalSpeed="8.84" duration="95.00" routeLength="995.70" waitingTime="2.00" waitingCount="1" stopTime="0.00" timeLoss="15.37" rerouteNo="0" devices="tripinfo_WE_59" vType="car" speedFactor="0.89" vaporized=""/>
    <tripinfo id="WE_66" depart="66.00" departLane="1i_0" departPos="4.10" departSpeed="0.00" departDelay="0.00" arrival="156.00" arrivalLane="4o_0" arrivalPos="492.80" arrivalSpeed="10.18" duration="90.00" routeLength="995.70" waitingTime="0.00" waitingCount="0" stopTime="0.00" timeLoss="15.18" rerouteNo="0" devices="tripinfo_WE_66" vType="car" speedFactor="0.95" vaporized=""/>
    <tripinfo id="NS_58" depart="62.00" departLane="2i_0" departPos="4.10" departSpeed="0.00" departDelay="4.00" arrival="158.00" arrivalLane="4o_0" arrivalPos="492.80" arrivalSpeed="9.55" duration="96.00" routeLength="990.53" waitingTime="2.00" waitingCount="1" stopTime="0.00" timeLoss="23.31" rerouteNo="0" devices="tripinfo_NS_58" vType="car" speedFactor="0.97" vaporized=""/>
    <tripinfo id="NS_62" depart="65.00" departLane="2i_0" departPos="4.10" departSpeed="0.00" departDelay="3.00" arrival="163.00" arrivalLane="4o_0" arrivalPos="492.80" arrivalSpeed="9.66" duration="98.00" routeLength="990.53" waitingTime="1.00" waitingCount="1" stopTime="0.00" timeLoss="20.55" rerouteNo="0" devices="tripinfo_NS_62" vType="car" speedFactor="0.92" vaporized=""/>
    <tripinfo id="SN_60" depart="62.00" departLane="3i_0" departPos="4.10" departSpeed="0.00" departDelay="2.00" arrival="164.00" arrivalLane="2o_0" arrivalPos="492.80" arrivalSpeed="8.55" duration="102.00" routeLength="990.53" waitingTime="0.00" waitingCount="0" stopTime="0.00" timeLoss="16.92" rerouteNo="0" devices="tripinfo_SN_60" vType="car" speedFactor="0.83" vaporized=""/>
    <tripinfo id="NS_70" depart="70.00" departLane="2i_0" departPos="4.10" departSpeed="0.00" departDelay="0.00" arrival="164.00" arrivalLane="4o_0" arrivalPos="492.80" arrivalSpeed="10.94" duration="94.00" routeLength="990.53" waitingTime="0.00" waitingCount="0" stopTime="0.00" timeLoss="34.23" rerouteNo="0" devices="tripinfo_NS_70" vType="car" speedFactor="1.18" vaporized=""/>
    <tripinfo id="SN_61" depart="65.00" departLane="3i_0" departPos="4.10" departSpeed="0.00" departDelay="4.00" arrival="166.00" arrivalLane="1o_0" arrivalPos="492.80" arrivalSpeed="8.76" duration="101.00" routeLength="995.70" waitingTime="0.00" waitingCount="0" stopTime="0.00" timeLoss="19.55" rerouteNo="0" devices="tripinfo_SN_61" vType="car" speedFactor="0.87" vaporized=""/>
    <tripinfo id="NS_74" depart="74.00" departLane="2i_0" departPos="4.10" departSpeed="0.00" departDelay="0.00" arrival="166.00" arrivalLane="4o_0" arrivalPos="492.80" arrivalSpeed="10.93" duration="92.00" routeLength="990.53" waitingTime="0.00" waitingCount="0" stopTime="0.00" timeLoss="21.96" rerouteNo="0" devices="tripinfo_NS_74" vType="car" speedFactor="1.01" vaporized=""/>
    <tripinfo id="EW_67" depart="67.00" departLane="4i_0" departPos="10.10" departSpeed="0.00" departDelay="0.00" arrival="167.00" arrivalLane="2o_0" arrivalPos="492.80" arrivalSpeed="11.69" duration="100.00" routeLength="989.70" waitingTime="0.00" waitingCount="0" stopTime="0.00" timeLoss="32.41" rerouteNo="0" devices="tripinfo_EW_67" vType="truck" speedFactor="1.07" vaporized=""/>
    <tripinfo id="NS_76" depart="76.00" departLane="2i_0" departPos="4.10" departSpeed="0.00" departDelay="0.00" arrival="168.00" arrivalLane="3o_0" arrivalPos="492.80" arrivalSpeed="10.04" duration="92.00" routeLength="995.70" waitingTime="0.00" waitingCount="0" stopTime="0.00" timeLoss="20.88" rerouteNo="0" devices="tripinfo_NS_76" vType="car" speedFactor="0.99" vaporized=""/>
    <tripinfo id="SN_68" depart="68.00" departLane="3i_0" departPos="4.10" departSpeed="0.00" departDelay="0.00" arrival="169.00" arrivalLane="4o_0" arrivalPos="492.80" arrivalSpeed="9.96" duration="101.00" routeLength="995.90" waitingTime="1.00" waitingCount="1" stopTime="0.00" timeLoss="24.98" rerouteNo="0" devices="tripinfo_SN_68" vType="car" speedFactor="0.93" vaporized=""/>
    <tripinfo id="WE_75" depart="75.00" departLane="1i_0" departPos="4.10" departSpeed="0.00" departDelay="0.00" arrival="169.00" arrivalLane="2o_0" arrivalPos="492.80" arrivalSpeed="12.13" duration="94.00" routeLength="995.90" waitingTime="4.00" waitingCount="3" stopTime="0.00" timeLoss="33.14" rerouteNo="0" devices="tripinfo_WE_75" vType="car" speedFactor="1.17" vaporized=""/>
    <tripinfo id="WE_81" depart="81.00" departLane="1i_0" departPos="4.10" departSpeed="0.00" departDelay="0.00" arrival="171.00" arrivalLane="2o_0" arrivalPos="492.80" arrivalSpeed="10.89" duration="90.00" routeLength="995.90" waitingTime="2.00" waitingCount="1" stopTime="0.00" timeLoss="20.40" rerouteNo="0" devices="tripinfo_WE_81" vType="car" speedFactor="1.02" vaporized=""/>
    <tripinfo id="SN_89" depart="89.00" departLane="3i_0" departPos="4.10" departSpeed="0.00" departDelay="0.00" arrival="171.00" arrivalLane="4o_0" arrivalPos="492.80" arrivalSpeed="11.47" duration="82.00" routeLength="995.90" waitingTime="0.00" waitingCount="0" stopTime="0.00" timeLoss="17.64" rerouteNo="0" devices="tripinfo_SN_89" vType="car" speedFactor="1.10" vaporized=""/>
    <tripinfo id="WE_89" depart="91.00" departLane="1i_0" departPos="4.10" departSpeed="0.00" departDelay="2.00" arrival="173.00" arrivalLane="4o_0" arrivalPos="492.80" arrivalSpeed="12.67" duration="82.00" routeLength="995.70" waitingTime="0.00" waitingCount="0" stopTime="0.00" timeLoss="21.51" rerouteNo="0" devices="tripinfo_WE_89" vType="car" speedFactor="1.18" vaporized=""/>
    <tripinfo id="NS_94" depart="95.00" departLane="2i_0" departPos="4.10" departSpeed="0.00" departDelay="1.00" arrival="173.00" arrivalLane="1o_0" arrivalPos="492.80" arrivalSpeed="11.03" duration="78.00" routeLength="995.90" waitingTime="0.00" waitingCount="0" stopTime="0.00" timeLoss="8.55" rerouteNo="0" devices="tripinfo_NS_94" vType="car" speedFactor="1.03" vaporized=""/>
    <tripinfo id="WE_87" depart="88.00" departLane="1i_0" departPos="4.10" departSpeed="0.00" departDelay="1.00" arrival="174.00" arrivalLane="3o_0" arrivalPos="492.80" arrivalSpeed="10.70" duration="86.00" routeLength="990.53" waitingTime="0.00" waitingCount="0" stopTime="0.00" timeLoss="13.72" rerouteNo="0" devices="tripinfo_WE_87" vType="car" speedFactor="0.97" vaporized=""/>
    <tripinfo id="EW_97" depart="97.00" departLane="4i_0" departPos="4.10" departSpeed="0.00" departDelay="0.00" arrival="175.00" arrivalLane="2o_0" arrivalPos="492.80" arrivalSpeed="11.76" duration="78.00" routeLength="995.70" waitingTime="0.00" waitingCount="0" stopTime="0.00" timeLoss="13.34" rerouteNo="0" devices="tripinfo_EW_97" vType="car" speedFactor="1.09" vaporized=""/>
    <tripinfo id="NS_105" depart="105.00" departLane="2i_0" departPos="4.10" departSpeed="0.00" departDelay="0.00" arrival="184.00" arrivalLane="1o_0" arrivalPos="492.80" arrivalSpeed="11.51" duration="79.00" routeLength="995.90" waitingTime="0.00" waitingCount="0" stopTime="0.00" timeLoss="11.24" rerouteNo="0" devices="tripinfo_NS_105" vType="car" speedFactor="1.04" vaporized=""/>
    <tripinfo id="WE_92" depart="94.00" departLane="1i_0" departPos="4.10" departSpeed="0.00" departDelay="2.00" arrival="188.00" arrivalLane="2o_0" arrivalPos="492.80" arrivalSpeed="9.08" duration="94.00" routeLength="995.90" waitingTime="2.00" waitingCount="1" stopTime="0.00" timeLoss="15.36" rerouteNo="0" devices="tripinfo_WE_92" vType="car" speedFactor="0.90" vaporized=""/>
    <tripinfo id="NS_111" depart="111.00" departLane="2i_0" departPos="4.10" departSpeed="0.00" departDelay="0.00" arrival="190.00" arrivalLane="1o_0" arrivalPos="492.80" arrivalSpeed="10.12" duration="79.00" routeLength="995.90" waitingTime="0.00" waitingCount="0" stopTime="0.00" timeLoss="7.66" rerouteNo="0" devices="tripinfo_NS_111" vType="car" speedFactor="1.00" vaporized=""/>
    <tripinfo id="WE_95" depart="97.00" departLane="1i_0" departPos="10.10" departSpeed="0.00" departDelay="2.00" arrival="191.00" arrivalLane="2o_0" arrivalPos="492.80" arrivalSpeed="10.85" duration="94.00" routeLength="989.90" waitingTime="0.00" waitingCount="0" stopTime="0.00" timeLoss="21.46" rerouteNo="0" devices="tripinfo_WE_95" vType="truck" speedFactor="0.98" vaporized=""/>
    <tripinfo id="EW_111" depart="111.00" departLane="4i_0" departPos="4.10" departSpeed="0.00" departDelay="0.00" arrival="192.00" arrivalLane="1o_0" arrivalPos="492.80" arrivalSpeed="11.04" duration="81.00" routeLength="990.53" waitingTime="0.00" waitingCount="0" stopTime="0.00" timeLoss="15.95" rerouteNo="0" devices="tripinfo_EW_111" vType="car" speedFactor="1.09" vaporized=""/>
    <tripinfo id="WE_98" depart="103.00" departLane="1i_0" departPos="10.10" departSpeed="0.00" departDelay="5.00" arrival="198.00" arrivalLane="4o_0" arrivalPos="492.80" arrivalSpeed="10.80" duration="95.00" routeLength="989.70" waitingTime="3.00" waitingCount="1" stopTime="0.00" timeLoss="25.23" rerouteNo="0" devices="tripinfo_WE_98" vType="truck" speedFactor="1.02" vaporized=""/>
    <tripinfo id="EW_114" depart="114.00" departLane="4i_0" departPos="4.10" departSpeed="0.00" departDelay="0.00" arrival="202.00" arrivalLane="1o_0" arrivalPos="492.80" arrivalSpeed="9.63" duration="88.00" routeLength="990.53" waitingTime="0.00" waitingCount="0" stopTime="0.00" timeLoss="9.14" rerouteNo="0" devices="tripinfo_EW_114" vType="car" speedFactor="0.90" vaporized=""/>
    <tripinfo id="EW_118" depart="118.00" departLane="4i_0" departPos="4.10" departSpeed="0.00" departDelay="0.00" arrival="203.00" arrivalLane="1o_0" arrivalPos="492.80" arrivalSpeed="10.95" duration="85.00" routeLength="990.53" waitingTime="0.00" waitingCount="0" stopTime="0.00" timeLoss="24.86" rerouteNo="0" devices="tripinfo_EW_118" vType="car" speedFactor="1.17" vaporized=""/>
    <tripinfo id="SN_122" depart="122.00" departLane="3i_0" departPos="4.10" departSpeed="0.00" departDelay="0.00" arrival="203.00" arrivalLane="4o_0" arrivalPos="492.80" arrivalSpeed="10.84" duration="81.00" routeLength="995.90" waitingTime="0.00" waitingCount="0" stopTime="0.00" timeLoss="10.94" rerouteNo="0" devices="tripinfo_SN_122" vType="car" speedFactor="1.02" vaporized=""/>
    <tripinfo id="WE_125" depart="128.00" departLane="1i_0" departPos="4.10" departSpeed="0.00" departDelay="3.00" arrival="210.00" arrivalLane="4o_0" arrivalPos="492.80" arrivalSpeed="11.85" duration="82.00" routeLength="995.70" waitingTime="4.00" waitingCount="1" stopTime="0.00" timeLoss="16.99" rerouteNo="0" devices="tripinfo_WE_125" vType="car" speedFactor="1.10" vaporized=""/>
    <tripinfo id="SN_114" depart="114.00" departLane="3i_0" departPos="4.10" departSpeed="0.00" departDelay="0.00" arrival="212.00" arrivalLane="1o_0" arrivalPos="492.80" arrivalSpeed="8.31" duration="98.00" routeLength="995.70" waitingTime="2.00" waitingCount="1" stopTime="0.00" timeLoss="14.32" rerouteNo="0" devices="tripinfo_SN_114" vType="car" speedFactor="0.85" vaporized=""/>
    <tripinfo id="NS_114" depart="115.00" departLane="2i_0" departPos="10.10" departSpeed="0.00" departDelay="1.00" arrival="214.00" arrivalLane="1o_0" arrivalPos="492.80" arrivalSpeed="10.29" duration="99.00" routeLength="989.90" waitingTime="0.00" waitingCount="0" stopTime="0.00" timeLoss="23.82" rerouteNo="0" devices="tripinfo_NS_114" vType="truck" speedFactor="0.94" vaporized=""/>
    <tripinfo id="NS_130" depart="132.00" departLane="2i_0" departPos="4.10" departSpeed="0.00" departDelay="2.00" arrival="219.00" arrivalLane="4o_0" arrivalPos="492.80" arrivalSpeed="9.98" duration="87.00" routeLength="990.53" waitingTime="0.00" waitingCount="0" stopTime="0.00" timeLoss="16.67" rerouteNo="0" devices="tripinfo_NS_130" vType="car" speedFactor="1.00" vaporized=""/>
    <tripinfo id="WE_137" depart="137.00" departLane="1i_0" departPos="4.10" departSpeed="0.00" departDelay="0.00" arrival="222.00" arrivalLane="4o_0" arrivalPos="492.80" arrivalSpeed="10.27" duration="85.00" routeLength="995.70" waitingTime="0.00" waitingCount="0" stopTime="0.00" timeLoss="13.98" rerouteNo="0" devices="tripinfo_WE_137" vType="car" speedFactor="1.00" vaporized=""/>
    <tripinfo id="NS_117" depart="119.00" departLane="2i_0" departPos="4.10" departSpeed="0.00" departDelay="2.00" arrival="225.00" arrivalLane="3o_0" arrivalPos="492.80" arrivalSpeed="9.13" duration="106.00" routeLength="995.70" waitingTime="1.00" waitingCount="1" stopTime="0.00" timeLoss="22.86" rerouteNo="0" devices="tripinfo_NS_117" vType="car" speedFactor="0.85" vaporized=""/>
    <tripinfo id="WE_146" depart="146.00" departLane="1i_0" departPos="4.10" departSpeed="0.00" departDelay="0.00" arrival="225.00" arrivalLane="2o_0" arrivalPos="492.80" arrivalSpeed="11.52" duration="79.00" routeLength="995.90" waitingTime="0.00" waitingCount="0" stopTime="0.00" timeLoss="16.65" rerouteNo="0" devices="tripinfo_WE_146" vType="car" speedFactor="1.14" vaporized=""/>
    <tripinfo id="WE_139" depart="141.00" departLane="1i_0" departPos="4.10" departSpeed="0.00" departDelay="2.00" arrival="233.00" arrivalLane="3o_0" arrivalPos="492.80" arrivalSpeed="9.23" duration="92.00" routeLength="990.53" waitingTime="0.00" waitingCount="0" stopTime="0.00" timeLoss="13.80" rerouteNo="0" devices="tripinfo_WE_139" vType="car" speedFactor="0.90" vaporized=""/>
    <tripinfo id="EW_148" depart="148.00" departLane="4i_0" departPos="4.10" departSpeed="0.00" departDelay="0.00" arrival="235.00" arrivalLane="3o_0" arrivalPos="492.80" arrivalSpeed="10.97" duration="87.00" routeLength="995.90" waitingTime="1.00" waitingCount="1" stopTime="0.00" timeLoss="17.57" rerouteNo="0" devices="tripinfo_EW_148" vType="car" speedFactor="1.02" vaporized=""/>
    <tripinfo id="EW_149" depart="152.00" departLane="4i_0" departPos="4.10" departSpeed="0.00" departDelay="3.00" arrival="236.00" arrivalLane="1o_0" arrivalPos="492.80" arrivalSpeed="10.19" duration="84.00" routeLength="990.53" waitingTime="0.00" waitingCount="0" stopTime="0.00" timeLoss="10.85" rerouteNo="0" devices="tripinfo_EW_149" vType="car" speedFactor="0.97" vaporized=""/>
    <tripinfo id="WE_156" depart="156.00" departLane="1i_0" departPos="4.10" departSpeed="0.00" departDelay="0.00" arrival="236.00" arrivalLane="2o_0" arrivalPos="492.80" arrivalSpeed="10.82" duration="80.00" routeLength="995.90" waitingTime="0.00" waitingCount="0" stopTime="0.00" timeLoss="10.18" rerouteNo="0" devices="tripinfo_WE_156" vType="car" speedFactor="1.02" vaporized=""/>
    <tripinfo id="SN_149" depart="149.00" departLane="3i_0" departPos="4.10" departSpeed="0.00" departDelay="0.00" arrival="237.00" arrivalLane="1o_0" arrivalPos="492.80" arrivalSpeed="11.47" duration="88.00" routeLength="995.70" waitingTime="5.00" waitingCount="2" stopTime="0.00" timeLoss="22.67" rerouteNo="0" devices="tripinfo_SN_149" vType="car" speedFactor="1.08" vaporized=""/>
    <tripinfo id="EW_153" depart="158.00" departLane="4i_0" departPos="4.10" departSpeed="0.00" departDelay="5.00" arrival="238.00" arrivalLane="2o_0" arrivalPos="492.80" arrivalSpeed="11.58" duration="80.00" routeLength="995.70" waitingTime="0.00" waitingCount="0" stopTime="0.00" timeLoss="16.44" rerouteNo="0" devices="tripinfo_EW_153" vType="car" speedFactor="1.12" vaporized=""/>
    <tripinfo id="NS_161" depart="161.00" departLane="2i_0" departPos="4.10" departSpeed="0.00" departDelay="0.00" arrival="244.00" arrivalLane="3o_0" arrivalPos="492.80" arrivalSpeed="9.73" duration="83.00" routeLength="995.70" waitingTime="0.00" waitingCount="0" stopTime="0.00" timeLoss="11.24" rerouteNo="0" devices="tripinfo_NS_161" vType="car" speedFactor="0.99" vaporized=""/>
    <tripinfo id="SN_168" depart="168.00" departLane="3i_0" departPos="4.10" departSpeed="0.00" departDelay="0.00" arrival="254.00" arrivalLane="1o_0" arrivalPos="492.80" arrivalSpeed="10.38" duration="86.00" routeLength="995.70" waitingTime="0.00" waitingCount="0" stopTime="0.00" timeLoss="10.65" rerouteNo="0" devices="tripinfo_SN_168" vType="car" speedFactor="0.94" vaporized=""/>
    <tripinfo id="WE_169" depart="169.00" departLane="1i_0" departPos="4.10" departSpeed="0.00" departDelay="0.00" arrival="258.00" arrivalLane="3o_0" arrivalPos="492.80" arrivalSpeed="9.51" duration="89.00" routeLength="990.53" waitingTime="0.00" waitingCount="0" stopTime="0.00" timeLoss="9.34" rerouteNo="0" devices="tripinfo_WE_169" vType="car" speedFactor="0.88" vaporized=""/>
    <tripinfo id="WE_175" depart="175.00" departLane="1i_0" departPos="4.10" departSpeed="0.00" departDelay="0.00" arrival="260.00" arrivalLane="3o_0" arrivalPos="492.80" arrivalSpeed="10.40" duration="85.00" routeLength="990.53" waitingTime="0.00" waitingCount="0" stopTime="0.00" timeLoss="17.05" rerouteNo="0" devices="tripinfo_WE_175" vType="car" speedFactor="1.04" vaporized=""/>
    <tripinfo id="NS_183" depart="183.00" departLane="2i_0" departPos="4.10" departSpeed="0.00" departDelay="0.00" arrival="262.00" arrivalLane="1o_0" arrivalPos="492.80" arrivalSpeed="10.63" duration="79.00" routeLength="995.90" waitingTime="0.00" waitingCount="0" stopTime="0.00" timeLoss="9.26" rerouteNo="0" devices="tripinfo_NS_183" vType="car" speedFactor="1.02" vaporized=""/>
    <tripinfo id="SN_173" depart="174.00" departLane="3i_0" departPos="4.10" departSpeed="0.00" departDelay="1.00" arrival="264.00" arrivalLane="4o_0" arrivalPos="492.80" arrivalSpeed="8.80" duration="90.00" routeLength="995.90" waitingTime="0.00" waitingCount="0" stopTime="0.00" timeLoss="11.44" rerouteNo="0" devices="tripinfo_SN_173" vType="car" speedFactor="0.91" vaporized=""/>
    <tripinfo id="SN_174" depart="177.00" departLane="3i_0" departPos="4.10" departSpeed="0.00" departDelay="3.00" arrival="266.00" arrivalLane="4o_0" arrivalPos="492.80" arrivalSpeed="9.89" duration="89.00" routeLength="995.90" waitingTime="0.00" waitingCount="0" stopTime="0.00" timeLoss="11.00" rerouteNo="0" devices="tripinfo_SN_174" vType="car" speedFactor="0.91" vaporized=""/>
    <tripinfo id="EW_187" depart="187.00" departLane="4i_0" departPos="4.10" departSpeed="0.00" departDelay="0.00" arrival="271.00" arrivalLane="3o_0" arrivalPos="492.80" arrivalSpeed="10.91" duration="84.00" routeLength="995.90" waitingTime="3.00" waitingCount="1" stopTime="0.00" timeLoss="14.51" rerouteNo="0" devices="tripinfo_EW_187" vType="car" speedFactor="1.02" vaporized=""/>
    <tripinfo id="EW_207" depart="207.00" departLane="4i_0" departPos="4.10" departSpeed="0.00" departDelay="0.00" arrival="287.00" arrivalLane="2o_0" arrivalPos="492.80" arrivalSpeed="10.77" duration="80.00" routeLength="995.70" waitingTime="1.00" waitingCount="1" stopTime="0.00" timeLoss="12.65" rerouteNo="0" devices="tripinfo_EW_207" vType="car" speedFactor="1.06" vaporized=""/>
    <tripinfo id="WE_202" depart="203.00" departLane="1i_0" departPos="10.10" departSpeed="0.00" departDelay="1.00" arrival="296.00" arrivalLane="2o_0" arrivalPos="492.80" arrivalSpeed="10.78" duration="93.00" routeLength="989.90" waitingTime="1.00" waitingCount="1" stopTime="0.00" timeLoss="21.15" rerouteNo="0" devices="tripinfo_WE_202" vType="truck" speedFactor="0.99" vaporized=""/>
    <tripinfo id="WE_203" depart="207.00" departLane="1i_0" departPos="4.10" departSpeed="0.00" departDelay="4.00" arrival="301.00" arrivalLane="3o_0" arrivalPos="492.80" arrivalSpeed="9.18" duration="94.00" routeLength="990.53" waitingTime="0.00" waitingCount="0" stopTime="0.00" timeLoss="19.02" rerouteNo="0" devices="tripinfo_WE_203" vType="car" speedFactor="0.94" vaporized=""/>
    <tripinfo id="SN_213" depart="213.00" departLane="3i_0" departPos="4.10" departSpeed="0.00" departDelay="0.00" arrival="303.00" arrivalLane="1o_0" arrivalPos="492.80" arrivalSpeed="10.24" duration="90.00" routeLength="995.70" waitingTime="2.00" waitingCount="1" stopTime="0.00" timeLoss="15.60" rerouteNo="0" devices="tripinfo_SN_213" vType="car" speedFactor="0.96" vaporized=""/>
    <tripinfo id="WE_219" depart="219.00" departLane="1i_0" departPos="4.10" departSpeed="0.00" departDelay="0.00" arrival="305.00" arrivalLane="4o_0" arrivalPos="492.80" arrivalSpeed="10.57" duration="86.00" routeLength="995.70" waitingTime="1.00" waitingCount="1" stopTime="0.00" timeLoss="17.68" rerouteNo="0" devices="tripinfo_WE_219" vType="car" speedFactor="1.03" vaporized=""/>