<?xml version="1.0" encoding="UTF-8"?>

<!-- generated on 2024-05-04 20:30:02 by Eclipse SUMO sumo Version 1.19.0
<configuration xmlns:xsi="http://www.w3.org/2001/XMLSchema-instance" xsi:noNamespaceSchemaLocation="http://sumo.dlr.de/xsd/sumoConfiguration.xsd">

    <input>
        <net-file value="test5.net.xml"/>
        <route-files value="route_gen.rou.xml"/>
    </input>

    <output>
        <tripinfo-output value="tripinfo_epi813.xml"/>
    </output>

    <report>
        <no-warnings value="true"/>
    </report>

    <traci_server>
        <remote-port value="53541"/>
    </traci_server>

</configuration>
-->

<tripinfos xmlns:xsi="http://www.w3.org/2001/XMLSchema-instance" xsi:noNamespaceSchemaLocation="http://sumo.dlr.de/xsd/tripinfo_file.xsd">
    <tripinfo id="NS_3" depart="3.00" departLane="2i_0" departPos="4.10" departSpeed="0.00" departDelay="0.00" arrival="84.00" arrivalLane="4o_0" arrivalPos="492.80" arrivalSpeed="11.11" duration="81.00" routeLength="990.53" waitingTime="4.00" waitingCount="1" stopTime="0.00" timeLoss="14.37" rerouteNo="0" devices="tripinfo_NS_3" vType="car" speedFactor="1.06" vaporized=""/>
    <tripinfo id="NS_15" depart="15.00" departLane="2i_0" departPos="4.10" departSpeed="0.00" departDelay="0.00" arrival="91.00" arrivalLane="1o_0" arrivalPos="492.80" arrivalSpeed="11.27" duration="76.00" routeLength="995.90" waitingTime="0.00" waitingCount="0" stopTime="0.00" timeLoss="10.17" rerouteNo="0" devices="tripinfo_NS_15" vType="car" speedFactor="1.08" vaporized=""/>
    <tripinfo id="NS_9" depart="9.00" departLane="2i_0" departPos="4.10" departSpeed="0.00" departDelay="0.00" arrival="96.00" arrivalLane="4o_0" arrivalPos="492.80" arrivalSpeed="10.35" duration="87.00" routeLength="990.53" waitingTime="1.00" waitingCount="1" stopTime="0.00" timeLoss="11.22" rerouteNo="0" devices="tripinfo_NS_9" vType="car" speedFactor="0.94" vaporized=""/>
    <tripinfo id="WE_12" depart="12.00" departLane="1i_0" departPos="4.10" departSpeed="0.00" departDelay="0.00" arrival="98.00" arrivalLane="4o_0" arrivalPos="492.80" arrivalSpeed="11.21" duration="86.00" routeLength="995.70" waitingTime="3.00" waitingCount="1" stopTime="0.00" timeLoss="15.82" rerouteNo="0" devices="tripinfo_WE_12" vType="car" speedFactor="1.01" vaporized=""/>
    <tripinfo id="NS_26" depart="26.00" departLane="2i_0" departPos="4.10" departSpeed="0.00" departDelay="0.00" arrival="103.00" arrivalLane="3o_0" arrivalPos="492.80" arrivalSpeed="11.48" duration="77.00" routeLength="995.70" waitingTime="0.00" waitingCount="0" stopTime="0.00" timeLoss="8.51" rerouteNo="0" devices="tripinfo_NS_26" vType="car" speedFactor="1.05" vaporized=""/>
    <tripinfo id="WE_22" depart="22.00" departLane="1i_0" departPos="4.10" departSpeed="0.00" departDelay="0.00" arrival="107.00" arrivalLane="4o_0" arrivalPos="492.80" arrivalSpeed="10.67" duration="85.00" routeLength="995.70" waitingTime="0.00" waitingCount="0" stopTime="0.00" timeLoss="15.72" rerouteNo="0" devices="tripinfo_WE_22" vType="car" speedFactor="1.03" vaporized=""/>
    <tripinfo id="NS_31" depart="31.00" departLane="2i_0" departPos="4.10" departSpeed="0.00" departDelay="0.00" arrival="115.00" arrivalLane="4o_0" arrivalPos="492.80" arrivalSpeed="9.46" duration="84.00" routeLength="990.53" waitingTime="0.00" waitingCount="0" stopTime="0.00" timeLoss="8.94" rerouteNo="0" devices="tripinfo_NS_31" vType="car" speedFactor="0.94" vaporized=""/>
    <tripinfo id="SN_36" depart="36.00" departLane="3i_0" departPos="4.10" departSpeed="0.00" departDelay="0.00" arrival="117.00" arrivalLane="4o_0" arrivalPos="492.80" arrivalSpeed="10.87" duration="81.00" routeLength="995.90" waitingTime="0.00" waitingCount="0" stopTime="0.00" timeLoss="15.83" rerouteNo="0" devices="tripinfo_SN_36" vType="car" speedFactor="1.09" vaporized=""/>
    <tripinfo id="WE_28" depart="28.00" departLane="1i_0" departPos="4.10" departSpeed="0.00" departDelay="0.00" arrival="118.00" arrivalLane="3o_0" arrivalPos="492.80" arrivalSpeed="8.72" duration="90.00" routeLength="990.53" waitingTime="1.00" waitingCount="1" stopTime="0.00" timeLoss="10.74" rerouteNo="0" devices="tripinfo_WE_28" vType="car" speedFactor="0.89" vaporized=""/>
    <tripinfo id="EW_23" depart="23.00" departLane="4i_0" departPos="4.10" departSpeed="0.00" departDelay="0.00" arrival="121.00" arrivalLane="2o_0" arrivalPos="492.80" arrivalSpeed="8.77" duration="98.00" routeLength="995.70" waitingTime="0.00" waitingCount="0" stopTime="0.00" timeLoss="12.94" rerouteNo="0" devices="tripinfo_EW_23" vType="car" speedFactor="0.83" vaporized=""/>
    <tripinfo id="EW_43" depart="43.00" departLane="4i_0" departPos="4.10" departSpeed="0.00" departDelay="0.00" arrival="124.00" arrivalLane="2o_0" arrivalPos="492.80" arrivalSpeed="11.56" duration="81.00" routeLength="995.70" waitingTime="1.00" waitingCount="1" stopTime="0.00" timeLoss="13.19" rerouteNo="0" devices="tripinfo_EW_43" vType="car" speedFactor="1.05" vaporized=""/>
    <tripinfo id="WE_45" depart="45.00" departLane="1i_0" departPos="4.10" departSpeed="0.00" departDelay="0.00" arrival="125.00" arrivalLane="3o_0" arrivalPos="492.80" arrivalSpeed="9.85" duration="80.00" routeLength="990.53" waitingTime="0.00" waitingCount="0" stopTime="0.00" timeLoss="8.65" rerouteNo="0" devices="tripinfo_WE_45" vType="car" speedFactor="0.99" vaporized=""/>
    <tripinfo id="SN_34" depart="34.00" departLane="3i_0" departPos="4.10" departSpeed="0.00" departDelay="0.00" arrival="127.00" arrivalLane="1o_0" arrivalPos="492.80" arrivalSpeed="9.10" duration="93.00" routeLength="995.70" waitingTime="0.00" waitingCount="0" stopTime="0.00" timeLoss="10.02" rerouteNo="0" devices="tripinfo_SN_34" vType="car" speedFactor="0.86" vaporized=""/>
    <tripinfo id="NS_43" depart="43.00" departLane="2i_0" departPos="4.10" departSpeed="0.00" departDelay="0.00" arrival="129.00" arrivalLane="1o_0" arrivalPos="492.80" arrivalSpeed="11.86" duration="86.00" routeLength="995.90" waitingTime="0.00" waitingCount="0" stopTime="0.00" timeLoss="22.24" rerouteNo="0" devices="tripinfo_NS_43" vType="car" speedFactor="1.12" vaporized=""/>
    <tripinfo id="EW_54" depart="54.00" departLane="4i_0" departPos="4.10" departSpeed="0.00" departDelay="0.00" arrival="130.00" arrivalLane="1o_0" arrivalPos="492.80" arrivalSpeed="12.25" duration="76.00" routeLength="990.53" waitingTime="0.00" waitingCount="0" stopTime="0.00" timeLoss="15.15" rerouteNo="0" devices="tripinfo_EW_54" vType="car" speedFactor="1.16" vaporized=""/>
    <tripinfo id="WE_47" depart="48.00" departLane="1i_0" departPos="4.10" departSpeed="0.00" departDelay="1.00" arrival="132.00" arrivalLane="2o_0" arrivalPos="492.80" arrivalSpeed="10.40" duration="84.00" routeLength="995.90" waitingTime="0.00" waitingCount="0" stopTime="0.00" timeLoss="8.33" rerouteNo="0" devices="tripinfo_WE_47" vType="car" speedFactor="0.94" vaporized=""/>
    <tripinfo id="SN_39" depart="40.00" departLane="3i_0" departPos="10.10" departSpeed="0.00" departDelay="1.00" arrival="134.00" arrivalLane="4o_0" arrivalPos="492.80" arrivalSpeed="11.04" duration="94.00" routeLength="989.90" waitingTime="6.00" waitingCount="1" stopTime="0.00" timeLoss="24.57" rerouteNo="0" devices="tripinfo_SN_39" vType="truck" speedFactor="1.01" vaporized=""/>
    <tripinfo id="WE_50" depart="51.00" departLane="1i_0" departPos="4.10" departSpeed="0.00" departDelay="1.00" arrival="142.00" arrivalLane="2o_0" arrivalPos="492.80" arrivalSpeed="9.63" duration="91.00" routeLength="995.90" waitingTime="0.00" waitingCount="0" stopTime="0.00" timeLoss="14.82" rerouteNo="0" devices="tripinfo_WE_50" vType="car" speedFactor="0.94" vaporized=""/>
    <tripinfo id="NS_45" depart="47.00" departLane="2i_0" departPos="10.10" departSpeed="0.00" departDelay="2.00" arrival="144.00" arrivalLane="1o_0" arrivalPos="492.80" arrivalSpeed="10.61" duration="97.00" routeLength="989.90" waitingTime="3.00" waitingCount="1" stopTime="0.00" timeLoss="23.50" rerouteNo="0" devices="tripinfo_NS_45" vType="truck" speedFactor="0.96" vaporized=""/>
    <tripinfo id="EW_56" depart="56.00" departLane="4i_0" departPos="4.10" departSpeed="0.00" departDelay="0.00" arrival="146.00" arrivalLane="3o_0" arrivalPos="492.80" arrivalSpeed="10.23" duration="90.00" routeLength="995.90" waitingTime="6.00" waitingCount="1" stopTime="0.00" timeLoss="20.66" rerouteNo="0" devices="tripinfo_EW_56" vType="car" speedFactor="1.02" vaporized=""/>
    <tripinfo id="SN_57" depart="57.00" departLane="3i_0" departPos="4.10" departSpeed="0.00" departDelay="0.00" arrival="146.00" arrivalLane="2o_0" arrivalPos="492.80" arrivalSpeed="10.76" duration="89.00" routeLength="990.53" waitingTime="2.00" waitingCount="1" stopTime="0.00" timeLoss="19.49" rerouteNo="0" devices="tripinfo_SN_57" vType="car" speedFactor="1.01" vaporized=""/>
    <tripinfo id="SN_58" depart="60.00" departLane="3i_0" departPos="10.10" departSpeed="0.00" departDelay="2.00" arrival="150.00" arrivalLane="2o_0" arrivalPos="492.80" arrivalSpeed="10.68" duration="90.00" routeLength="984.53" waitingTime="0.00" waitingCount="0" stopTime="0.00" timeLoss="18.56" rerouteNo="0" devices="tripinfo_SN_58" vType="truck" speedFactor="0.99" vaporized=""/>
    <tripinfo id="SN_46" depart="46.00" departLane="3i_0" departPos="4.10" departSpeed="0.00" departDelay="0.00" arrival="153.00" arrivalLane="4o_0" arrivalPos="492.80" arrivalSpeed="9.51" duration="107.00" routeLength="995.90" waitingTime="3.00" waitingCount="2" stopTime="0.00" timeLoss="25.83" rerouteNo="0" devices="tripinfo_SN_46" vType="car" speedFactor="0.88" vaporized=""/>
    <tripinfo id="NS_62" depart="62.00" departLane="2i_0" departPos="4.10" departSpeed="0.00" departDelay="0.00" arrival="153.00" arrivalLane="1o_0" arrivalPos="492.80" arrivalSpeed="9.35" duration="91.00" routeLength="995.90" waitingTime="0.00" waitingCount="0" stopTime="0.00" timeLoss="13.44" rerouteNo="0" devices="tripinfo_NS_62" vType="car" speedFactor="0.92" vaporized=""/>
    <tripinfo id="NS_65" depart="65.00" departLane="2i_0" departPos="4.10" departSpeed="0.00" departDelay="0.00" arrival="154.00" arrivalLane="1o_0" arrivalPos="492.80" arrivalSpeed="11.50" duration="89.00" routeLength="995.90" waitingTime="0.00" waitingCount="0" stopTime="0.00" timeLoss="26.48" rerouteNo="0" devices="tripinfo_NS_65" vType="car" speedFactor="1.13" vaporized=""/>
    <tripinfo id="NS_73" depart="73.00" departLane="2i_0" departPos="4.10" departSpeed="0.00" departDelay="0.00" arrival="156.00" arrivalLane="1o_0" arrivalPos="492.80" arrivalSpeed="11.90" duration="83.00" routeLength="995.90" waitingTime="0.00" waitingCount="0" stopTime="0.00" timeLoss="22.63" rerouteNo="0" devices="tripinfo_NS_73" vType="car" speedFactor="1.18" vaporized=""/>
    <tripinfo id="NS_79" depart="79.00" departLane="2i_0" departPos="4.10" departSpeed="0.00" departDelay="0.00" arrival="159.00" arrivalLane="4o_0" arrivalPos="492.80" arrivalSpeed="10.10" duration="80.00" routeLength="990.53" waitingTime="0.00" waitingCount="0" stopTime="0.00" timeLoss="8.66" rerouteNo="0" devices="tripinfo_NS_79" vType="car" speedFactor="0.99" vaporized=""/>
    <tripinfo id="EW_60" depart="60.00" departLane="4i_0" departPos="4.10" departSpeed="0.00" departDelay="0.00" arrival="163.00" arrivalLane="2o_0" arrivalPos="492.80" arrivalSpeed="9.31" duration="103.00" routeLength="995.70" waitingTime="6.00" waitingCount="2" stopTime="0.00" timeLoss="23.63" rerouteNo="0" devices="tripinfo_EW_60" vType="car" speedFactor="0.89" vaporized=""/>
    <tripinfo id="NS_83" depart="83.00" departLane="2i_0" departPos="4.10" departSpeed="0.00" departDelay="0.00" arrival="164.00" arrivalLane="4o_0" arrivalPos="492.80" arrivalSpeed="10.43" duration="81.00" routeLength="990.53" waitingTime="0.00" waitingCount="0" stopTime="0.00" timeLoss="8.51" rerouteNo="0" devices="tripinfo_NS_83" vType="car" speedFactor="0.97" vaporized=""/>
    <tripinfo id="EW_63" depart="63.00" departLane="4i_0" departPos="4.10" departSpeed="0.00" departDelay="0.00" arrival="165.00" arrivalLane="3o_0" arrivalPos="492.80" arrivalSpeed="9.76" duration="102.00" routeLength="995.90" waitingTime="5.00" waitingCount="2" stopTime="0.00" timeLoss="27.36" rerouteNo="0" devices="tripinfo_EW_63" vType="car" speedFactor="0.95" vaporized=""/>
    <tripinfo id="EW_78" depart="78.00" departLane="4i_0" departPos="4.10" departSpeed="0.00" departDelay="0.00" arrival="165.00" arrivalLane="2o_0" arrivalPos="492.80" arrivalSpeed="11.74" duration="87.00" routeLength="995.70" waitingTime="2.00" waitingCount="2" stopTime="0.00" timeLoss="26.31" rerouteNo="0" devices="tripinfo_EW_78" vType="car" speedFactor="1.17" vaporized=""/>
    <tripinfo id="WE_81" depart="81.00" departLane="1i_0" departPos="4.10" departSpeed="0.00" departDelay="0.00" arrival="166.00" arrivalLane="4o_0" arrivalPos="492.80" arrivalSpeed="10.37" duration="85.00" routeLength="995.70" waitingTime="0.00" waitingCount="0" stopTime="0.00" timeLoss="15.42" rerouteNo="0" devices="tripinfo_WE_81" vType="car" speedFactor="1.02" vaporized=""/>
    <tripinfo id="SN_60" depart="64.00" departLane="3i_0" departPos="4.10" departSpeed="0.00" departDelay="4.00" arrival="169.00" arrivalLane="1o_0" arrivalPos="492.80" arrivalSpeed="9.03" duration="105.00" routeLength="995.70" waitingTime="0.00" waitingCount="0" stopTime="0.00" timeLoss="19.42" rerouteNo="0" devices="tripinfo_SN_60" vType="car" speedFactor="0.83" vaporized=""/>
    <tripinfo id="SN_61" depart="67.00" departLane="3i_0" departPos="4.10" departSpeed="0.00" departDelay="6.00" arrival="174.00" arrivalLane="1o_0" arrivalPos="492.80" arrivalSpeed="9.56" duration="107.00" routeLength="995.70" waitingTime="2.00" waitingCount="1" stopTime="0.00" timeLoss="25.54" rerouteNo="0" devices="tripinfo_SN_61" vType="car" speedFactor="0.87" vaporized=""/>
    <tripinfo id="SN_67" depart="70.00" departLane="3i_0" departPos="4.10" departSpeed="0.00" departDelay="3.00" arrival="175.00" arrivalLane="4o_0" arrivalPos="492.80" arrivalSpeed="9.20" duration="105.00" routeLength="995.90" waitingTime="2.00" waitingCount="1" stopTime="0.00" timeLoss="28.62" rerouteNo="0" devices="tripinfo_SN_67" vType="car" speedFactor="0.93" vaporized=""/>
    <tripinfo id="WE_90" depart="91.00" departLane="1i_0" departPos="4.10" departSpeed="0.00" departDelay="1.00" arrival="175.00" arrivalLane="2o_0" arrivalPos="492.80" arrivalSpeed="10.44" duration="84.00" routeLength="995.90" waitingTime="2.00" waitingCount="1" stopTime="0.00" timeLoss="14.78" rerouteNo="0" devices="tripinfo_WE_90" vType="car" speedFactor="1.03" vaporized=""/>
    <tripinfo id="EW_84" depart="84.00" departLane="4i_0" departPos="4.10" departSpeed="0.00" departDelay="0.00" arrival="176.00" arrivalLane="1o_0" arrivalPos="492.80" arrivalSpeed="12.25" duration="92.00" routeLength="990.53" waitingTime="0.00" waitingCount="0" stopTime="0.00" timeLoss="31.64" rerouteNo="0" devices="tripinfo_EW_84" vType="car" speedFactor="1.18" vaporized=""/>
    <tripinfo id="SN_73" depart="73.00" departLane="3i_0" departPos="4.10" departSpeed="0.00" departDelay="0.00" arrival="177.00" arrivalLane="4o_0" arrivalPos="492.80" arrivalSpeed="11.92" duration="104.00" routeLength="995.90" waitingTime="1.00" waitingCount="1" stopTime="0.00" timeLoss="41.93" rerouteNo="0" devices="tripinfo_SN_73" vType="car" speedFactor="1.15" vaporized=""/>
    <tripinfo id="WE_96" depart="96.00" departLane="1i_0" departPos="4.10" departSpeed="0.00" departDelay="0.00" arrival="178.00" arrivalLane="4o_0" arrivalPos="492.80" arrivalSpeed="11.89" duration="82.00" routeLength="995.70" waitingTime="0.00" waitingCount="0" stopTime="0.00" timeLoss="17.11" rerouteNo="0" devices="tripinfo_WE_96" vType="car" speedFactor="1.09" vaporized=""/>
    <tripinfo id="NS_91" depart="91.00" departLane="2i_0" departPos="4.10" departSpeed="0.00" departDelay="0.00" arrival="182.00" arrivalLane="3o_0" arrivalPos="492.80" arrivalSpeed="9.48" duration="91.00" routeLength="995.70" waitingTime="1.00" waitingCount="1" stopTime="0.00" timeLoss="16.88" rerouteNo="0" devices="tripinfo_NS_91" vType="car" speedFactor="0.96" vaporized=""/>
    <tripinfo id="SN_84" depart="84.00" departLane="3i_0" departPos="4.10" departSpeed="0.00" departDelay="0.00" arrival="184.00" arrivalLane="4o_0" arrivalPos="492.80" arrivalSpeed="11.05" duration="100.00" routeLength="995.90" waitingTime="5.00" waitingCount="1" stopTime="0.00" timeLoss="35.29" rerouteNo="0" devices="tripinfo_SN_84" vType="car" speedFactor="1.10" vaporized=""/>
    <tripinfo id="SN_74" depart="76.00" departLane="3i_0" departPos="4.10" departSpeed="0.00" departDelay="2.00" arrival="185.00" arrivalLane="1o_0" arrivalPos="492.80" arrivalSpeed="10.52" duration="109.00" routeLength="995.70" waitingTime="7.00" waitingCount="1" stopTime="0.00" timeLoss="38.46" rerouteNo="0" devices="tripinfo_SN_74" vType="car" speedFactor="1.01" vaporized=""/>
    <tripinfo id="EW_99" depart="99.00" departLane="4i_0" departPos="10.10" departSpeed="0.00" departDelay="0.00" arrival="188.00" arrivalLane="3o_0" arrivalPos="492.80" arrivalSpeed="10.98" duration="89.00" routeLength="989.90" waitingTime="0.00" waitingCount="0" stopTime="0.00" timeLoss="20.00" rerouteNo="0" devices="tripinfo_EW_99" vType="truck" speedFactor="1.02" vaporized=""/>
    <tripinfo id="NS_105" depart="105.00" departLane="2i_0" departPos="10.10" departSpeed="0.00" departDelay="0.00" arrival="188.00" arrivalLane="4o_0" arrivalPos="492.80" arrivalSpeed="11.10" duration="83.00" routeLength="984.53" waitingTime="0.00" waitingCount="0" stopTime="0.00" timeLoss="14.03" rerouteNo="0" devices="tripinfo_NS_105" vType="truck" speedFactor="1.02" vaporized=""/>
    <tripinfo id="NS_107" depart="109.00" departLane="2i_0" departPos="4.10" departSpeed="0.00" departDelay="2.00" arrival="194.00" arrivalLane="3o_0" arrivalPos="492.80" arrivalSpeed="10.60" duration="85.00" routeLength="995.70" waitingTime="0.00" waitingCount="0" stopTime="0.00" timeLoss="14.00" rerouteNo="0" devices="tripinfo_NS_107" vType="car" speedFactor="1.00" vaporized=""/>
    <tripinfo id="SN_105" depart="105.00" departLane="3i_0" departPos="4.10" departSpeed="0.00" departDelay="0.00" arrival="197.00" arrivalLane="2o_0" arrivalPos="492.80" arrivalSpeed="11.26" duration="92.00" routeLength="990.53" waitingTime="5.00" waitingCount="2" stopTime="0.00" timeLoss="27.39" rerouteNo="0" devices="tripinfo_SN_105" vType="car" speedFactor="1.09" vaporized=""/>
    <tripinfo id="SN_85" depart="88.00" departLane="3i_0" departPos="10.10" departSpeed="0.00" departDelay="3.00" arrival="201.00" arrivalLane="1o_0" arrivalPos="492.80" arrivalSpeed="10.46" duration="113.00" routeLength="989.70" waitingTime="8.00" waitingCount="2" stopTime="0.00" timeLoss="38.23" rerouteNo="0" devices="tripinfo_SN_85" vType="truck" speedFactor="0.95" vaporized=""/>
    <tripinfo id="NS_112" depart="112.00" departLane="2i_0" departPos="4.10" departSpeed="0.00" departDelay="0.00" arrival="202.00" arrivalLane="4o_0" arrivalPos="492.80" arrivalSpeed="9.86" duration="90.00" routeLength="990.53" waitingTime="0.00" waitingCount="0" stopTime="0.00" timeLoss="11.54" rerouteNo="0" devices="tripinfo_NS_112" vType="car" speedFactor="0.90" vaporized=""/>
    <tripinfo id="NS_118" depart="118.00" departLane="2i_0" departPos="4.10" departSpeed="0.00" departDelay="0.00" arrival="203.00" arrivalLane="1o_0" arrivalPos="492.80" arrivalSpeed="12.47" duration="85.00" routeLength="995.90" waitingTime="0.00" waitingCount="0" stopTime="0.00" timeLoss="23.98" rerouteNo="0" devices="tripinfo_NS_118" vType="car" speedFactor="1.17" vaporized=""/>
    <tripinfo id="WE_119" depart="119.00" departLane="1i_0" departPos="4.10" departSpeed="0.00" departDelay="0.00" arrival="208.00" arrivalLane="3o_0" arrivalPos="492.80" arrivalSpeed="11.29" duration="89.00" routeLength="990.53" waitingTime="4.00" waitingCount="1" stopTime="0.00" timeLoss="19.50" rerouteNo="0" devices="tripinfo_WE_119" vType="car" speedFactor="1.02" vaporized=""/>
    <tripinfo id="WE_113" depart="113.00" departLane="1i_0" departPos="4.10" departSpeed="0.00" departDelay="0.00" arrival="212.00" arrivalLane="4o_0" arrivalPos="492.80" arrivalSpeed="8.67" duration="99.00" routeLength="995.70" waitingTime="5.00" waitingCount="1" stopTime="0.00" timeLoss="18.28" rerouteNo="0" devices="tripinfo_WE_113" vType="car" speedFactor="0.88" vaporized=""/>
    <tripinfo id="EW_118" depart="118.00" departLane="4i_0" departPos="4.10" departSpeed="0.00" departDelay="0.00" arrival="213.00" arrivalLane="1o_0" arrivalPos="492.80" arrivalSpeed="9.10" duration="95.00" routeLength="990.53" waitingTime="0.00" waitingCount="0" stopTime="0.00" timeLoss="12.67" rerouteNo="0" devices="tripinfo_EW_118" vType="car" speedFactor="0.85" vaporized=""/>
    <tripinfo id="EW_135" depart="135.00" departLane="4i_0" departPos="4.10" departSpeed="0.00" departDelay="0.00" arrival="215.00" arrivalLane="3o_0" arrivalPos="492.80" arrivalSpeed="10.27" duration="80.00" routeLength="995.90" waitingTime="0.00" waitingCount="0" stopTime="0.00" timeLoss="10.35" rerouteNo="0" devices="tripinfo_EW_135" vType="car" speedFactor="1.02" vaporized=""/>
    <tripinfo id="WE_126" depart="127.00" departLane="1i_0" departPos="4.10" departSpeed="0.00" departDelay="1.00" arrival="216.00" arrivalLane="2o_0" arrivalPos="492.80" arrivalSpeed="8.92" duration="89.00" routeLength="995.90" waitingTime="0.00" waitingCount="0" stopTime="0.00" timeLoss="10.10" rerouteNo="0" devices="tripinfo_WE_126" vType="car" speedFactor="0.90" vaporized=""/>
    <tripinfo id="SN_115" depart="115.00" departLane="3i_0" departPos="4.10" departSpeed="0.00" departDelay="0.00" arrival="217.00" arrivalLane="1o_0" arrivalPos="492.80" arrivalSpeed="8.42" duration="102.00" routeLength="995.70" waitingTime="1.00" waitingCount="1" stopTime="0.00" timeLoss="18.90" rerouteNo="0" devices="tripinfo_SN_115" vType="car" speedFactor="0.85" vaporized=""/>
    <tripinfo id="WE_128" depart="130.00" departLane="1i_0" departPos="4.10" departSpeed="0.00" departDelay="2.00" arrival="218.00" arrivalLane="2o_0" arrivalPos="492.80" arrivalSpeed="11.65" duration="88.00" routeLength="995.90" waitingTime="0.00" waitingCount="0" stopTime="0.00" timeLoss="25.48" rerouteNo="0" devices="tripinfo_WE_128" vType="car" speedFactor="1.14" vaporized=""/>
    <tripinfo id="WE_129" depart="133.00" departLane="1i_0" departPos="4.10" departSpeed="0.00" departDelay="4.00" arrival="222.00" arrivalLane="2o_0" arrivalPos="492.80" arrivalSpeed="10.46" duration="89.00" routeLength="995.90" waitingTime="0.00" waitingCount="0" stopTime="0.00" timeLoss="15.26" rerouteNo="0" devices="tripinfo_WE_129" vType="car" speedFactor="0.97" vaporized=""/>
    <tripinfo id="WE_131" depart="136.00" departLane="1i_0" departPos="4.10" departSpeed="0.00" departDelay="5.00" arrival="223.00" arrivalLane="2o_0" arrivalPos="492.80" arrivalSpeed="11.79" duration="87.00" routeLength="995.90" waitingTime="0.00" waitingCount="0" stopTime="0.00" timeLoss="21.62" rerouteNo="0" devices="tripinfo_WE_131" vType="car" speedFactor="1.08" vaporized=""/>
    <tripinfo id="WE_139" depart="139.00" departLane="1i_0" departPos="4.10" departSpeed="0.00" departDelay="0.00" arrival="227.00" arrivalLane="2o_0" arrivalPos="492.80" arrivalSpeed="9.38" duration="88.00" routeLength="995.90" waitingTime="0.00" waitingCount="0" stopTime="0.00" timeLoss="12.69" rerouteNo="0" devices="tripinfo_WE_139" vType="car" speedFactor="0.94" vaporized=""/>
    <tripinfo id="SN_119" depart="119.00" departLane="3i_0" departPos="10.10" departSpeed="0.00" departDelay="0.00" arrival="228.00" arrivalLane="1o_0" arrivalPos="492.80" arrivalSpeed="11.62" duration="109.00" routeLength="989.70" waitingTime="12.00" waitingCount="2" stopTime="0.00" timeLoss="40.85" rerouteNo="0" devices="tripinfo_SN_119" vType="truck" speedFactor="1.05" vaporized=""/>
    <tripinfo id="NS_138" depart="138.00" departLane="2i_0" departPos="4.10" departSpeed="0.00" departDelay="0.00" arrival="234.00" arrivalLane="1o_0" arrivalPos="492.80" arrivalSpeed="10.46" duration="96.00" routeLength="995.90" waitingTime="10.00" waitingCount="2" stopTime="0.00" timeLoss="24.22" rerouteNo="0" devices="tripinfo_NS_138" vType="car" speedFactor="0.99" vaporized=""/>
    <tripinfo id="NS_139" depart="142.00" departLane="2i_0" departPos="4.10" departSpeed="0.00" departDelay="3.00" arrival="240.00" arrivalLane="4o_0" arrivalPos="492.80" arrivalSpeed="8.98" duration="98.00" routeLength="990.53" waitingTime="5.00" waitingCount="1" stopTime="0.00" timeLoss="18.02" rerouteNo="0" devices="tripinfo_NS_139" vType="car" speedFactor="0.88" vaporized=""/>
    <tripinfo id="NS_147" depart="150.00" departLane="2i_0" departPos="4.10" departSpeed="0.00" departDelay="3.00" arrival="241.00" arrivalLane="3o_0" arrivalPos="492.80" arrivalSpeed="10.59" duration="91.00" routeLength="995.70" waitingTime="2.00" waitingCount="2" stopTime="0.00" timeLoss="21.55" rerouteNo="0" devices="tripinfo_NS_147" vType="car" speedFactor="1.02" vaporized=""/>
    <tripinfo id="SN_120" depart="125.00" departLane="3i_0" departPos="4.10" departSpeed="0.00" departDelay="5.00" arrival="242.00" arrivalLane="4o_0" arrivalPos="492.80" arrivalSpeed="10.06" duration="117.00" routeLength="995.90" waitingTime="12.00" waitingCount="2" stopTime="0.00" timeLoss="46.17" rerouteNo="0" devices="tripinfo_SN_120" vType="car" speedFactor="1.00" vaporized=""/>
    <tripinfo id="NS_149" depart="153.00" departLane="2i_0" departPos="4.10" departSpeed="0.00" departDelay="4.00" arrival="244.00" arrivalLane="3o_0" arrivalPos="492.80" arrivalSpeed="10.77" duration="91.00" routeLength="995.70" waitingTime="0.00" waitingCount="0" stopTime="0.00" timeLoss="21.17" rerouteNo="0" devices="tripinfo_NS_149" vType="car" speedFactor="1.02" vaporized=""/>
    <tripinfo id="NS_144" depart="146.00" departLane="2i_0" departPos="4.10" departSpeed="0.00" departDelay="2.00" arrival="245.00" arrivalLane="1o_0" arrivalPos="492.80" arrivalSpeed="10.10" duration="99.00" routeLength="995.90" waitingTime="2.00" waitingCount="2" stopTime="0.00" timeLoss="21.06" rerouteNo="0" devices="tripinfo_NS_144" vType="car" speedFactor="0.91" vaporized=""/>
    <tripinfo id="EW_157" depart="159.00" departLane="4i_0" departPos="10.10" departSpeed="0.00" departDelay="2.00" arrival="247.00" arrivalLane="1o_0" arrivalPos="492.80" arrivalSpeed="11.21" duration="88.00" routeLength="984.53" waitingTime="0.00" waitingCount="0" stopTime="0.00" timeLoss="19.40" rerouteNo="0" devices="tripinfo_EW_157" vType="truck" speedFactor="1.03" vaporized=""/>
    <tripinfo id="SN_124" depart="127.00" departLane="3i_0" departPos="4.10" departSpeed="0.00" departDelay="3.00" arrival="248.00" arrivalLane="4o_0" arrivalPos="492.80" arrivalSpeed="10.50" duration="121.00" routeLength="995.90" waitingTime="16.00" waitingCount="4" stopTime="0.00" timeLoss="50.15" rerouteNo="0" devices="tripinfo_SN_124" vType="car" speedFactor="1.00" vaporized=""/>
    <tripinfo id="SN_128" depart="131.00" departLane="3i_0" departPos="10.10" departSpeed="0.00" departDelay="3.00" arrival="249.00" arrivalLane="2o_0" arrivalPos="492.80" arrivalSpeed="10.74" duration="118.00" routeLength="984.53" waitingTime="12.00" waitingCount="2" stopTime="0.00" timeLoss="48.89" rerouteNo="0" devices="tripinfo_SN_128" vType="truck" speedFactor="1.01" vaporized=""/>
    <tripinfo id="SN_133" depart="137.00" departLane="3i_0" departPos="10.10" departSpeed="0.00" departDelay="4.00" arrival="252.00" arrivalLane="2o_0" arrivalPos="492.80" arrivalSpeed="11.64" duration="115.00" routeLength="984.53" waitingTime="10.00" waitingCount="2" stopTime="0.00" timeLoss="47.41" rerouteNo="0" devices="tripinfo_SN_133" vType="truck" speedFactor="1.06" vaporized=""/>
    <tripinfo id="NS_166" depart="166.00" departLane="2i_0" departPos="4.10" departSpeed="0.00" departDelay="0.00" arrival="254.00" arrivalLane="3o_0" arrivalPos="492.80" arrivalSpeed="10.01" duration="88.00" routeLength="995.70" waitingTime="1.00" waitingCount="1" stopTime="0.00" timeLoss="17.78" rerouteNo="0" devices="tripinfo_NS_166" vType="car" speedFactor="1.01" vaporized=""/>
    <tripinfo id="NS_157" depart="157.00" departLane="2i_0" departPos="4.10" departSpeed="0.00" departDelay="0.00" arrival="255.00" arrivalLane="1o_0" arrivalPos="492.80" arrivalSpeed="9.34" duration="98.00" routeLength="995.90" waitingTime="1.00" waitingCount="1" stopTime="0.00" timeLoss="23.45" rerouteNo="0" devices="tripinfo_NS_157" vType="car" speedFactor="0.96" vaporized=""/>
    <tripinfo id="EW_163" depart="164.00" departLane="4i_0" departPos="4.10" departSpeed="0.00" departDelay="1.00" arrival="256.00" arrivalLane="1o_0" arrivalPos="492.80" arrivalSpeed="11.11" duration="92.00" routeLength="990.53" waitingTime="4.00" waitingCount="1" stopTime="0.00" timeLoss="23.98" rerouteNo="0" devices="tripinfo_EW_163" vType="car" speedFactor="1.03" vaporized=""/>
    <tripinfo id="NS_167" depart="169.00" departLane="2i_0" departPos="4.10" departSpeed="0.00" departDelay="2.00" arrival="256.00" arrivalLane="3o_0" arrivalPos="492.80" arrivalSpeed="10.60" duration="87.00" routeLength="995.70" waitingTime="0.00" waitingCount="0" stopTime="0.00" timeLoss="18.43" rerouteNo="0" devices="tripinfo_NS_167" vType="car" speedFactor="1.03" vaporized=""/>
    <tripinfo id="NS_168" depart="172.00" departLane="2i_0" departPos="4.10" departSpeed="0.00" departDelay="4.00" arrival="259.00" arrivalLane="3o_0" arrivalPos="492.80" arrivalSpeed="10.98" duration="87.00" routeLength="995.70" waitingTime="0.00" waitingCount="0" stopTime="0.00" timeLoss="15.80" rerouteNo="0" devices="tripinfo_NS_168" vType="car" speedFactor="1.00" vaporized=""/>
    <tripinfo id="NS_173" depart="175.00" departLane="2i_0" departPos="4.10" departSpeed="0.00" departDelay="2.00" arrival="266.00" arrivalLane="3o_0" arrivalPos="492.80" arrivalSpeed="10.31" duration="91.00" routeLength="995.70" waitingTime="1.00" waitingCount="1" stopTime="0.00" timeLoss="21.52" rerouteNo="0" devices="tripinfo_NS_173" vType="car" speedFactor="1.02" vaporized=""/>