<?xml version="1.0" encoding="UTF-8"?>

<!-- generated on 2024-05-04 18:22:17 by Eclipse SUMO sumo Version 1.19.0
<configuration xmlns:xsi="http://www.w3.org/2001/XMLSchema-instance" xsi:noNamespaceSchemaLocation="http://sumo.dlr.de/xsd/sumoConfiguration.xsd">

    <input>
        <net-file value="test5.net.xml"/>
        <route-files value="route_gen.rou.xml"/>
    </input>

    <output>
        <tripinfo-output value="tripinfo_epi356.xml"/>
    </output>

    <report>
        <no-warnings value="true"/>
    </report>

    <traci_server>
        <remote-port value="50745"/>
    </traci_server>

</configuration>
-->

<tripinfos xmlns:xsi="http://www.w3.org/2001/XMLSchema-instance" xsi:noNamespaceSchemaLocation="http://sumo.dlr.de/xsd/tripinfo_file.xsd">
    <tripinfo id="EW_10" depart="10.00" departLane="4i_0" departPos="4.10" departSpeed="0.00" departDelay="0.00" arrival="86.00" arrivalLane="3o_0" arrivalPos="492.80" arrivalSpeed="11.41" duration="76.00" routeLength="995.90" waitingTime="0.00" waitingCount="0" stopTime="0.00" timeLoss="8.64" rerouteNo="0" devices="tripinfo_EW_10" vType="car" speedFactor="1.06" vaporized=""/>
    <tripinfo id="EW_14" depart="14.00" departLane="4i_0" departPos="4.10" departSpeed="0.00" departDelay="0.00" arrival="87.00" arrivalLane="3o_0" arrivalPos="492.80" arrivalSpeed="11.71" duration="73.00" routeLength="995.90" waitingTime="0.00" waitingCount="0" stopTime="0.00" timeLoss="7.52" rerouteNo="0" devices="tripinfo_EW_14" vType="car" speedFactor="1.08" vaporized=""/>
    <tripinfo id="EW_15" depart="16.00" departLane="4i_0" departPos="4.10" departSpeed="0.00" departDelay="1.00" arrival="93.00" arrivalLane="1o_0" arrivalPos="492.80" arrivalSpeed="10.45" duration="77.00" routeLength="990.53" waitingTime="0.00" waitingCount="0" stopTime="0.00" timeLoss="8.03" rerouteNo="0" devices="tripinfo_EW_15" vType="car" speedFactor="1.03" vaporized=""/>
    <tripinfo id="SN_11" depart="11.00" departLane="3i_0" departPos="4.10" departSpeed="0.00" departDelay="0.00" arrival="94.00" arrivalLane="4o_0" arrivalPos="492.80" arrivalSpeed="10.24" duration="83.00" routeLength="995.90" waitingTime="0.00" waitingCount="0" stopTime="0.00" timeLoss="7.68" rerouteNo="0" devices="tripinfo_SN_11" vType="car" speedFactor="0.94" vaporized=""/>
    <tripinfo id="NS_18" depart="18.00" departLane="2i_0" departPos="4.10" departSpeed="0.00" departDelay="0.00" arrival="116.00" arrivalLane="4o_0" arrivalPos="492.80" arrivalSpeed="8.75" duration="98.00" routeLength="990.53" waitingTime="1.00" waitingCount="1" stopTime="0.00" timeLoss="12.61" rerouteNo="0" devices="tripinfo_NS_18" vType="car" speedFactor="0.83" vaporized=""/>
    <tripinfo id="SN_27" depart="27.00" departLane="3i_0" departPos="4.10" departSpeed="0.00" departDelay="0.00" arrival="117.00" arrivalLane="4o_0" arrivalPos="492.80" arrivalSpeed="9.79" duration="90.00" routeLength="995.90" waitingTime="0.00" waitingCount="0" stopTime="0.00" timeLoss="22.38" rerouteNo="0" devices="tripinfo_SN_27" vType="car" speedFactor="1.05" vaporized=""/>
    <tripinfo id="WE_12" depart="12.00" departLane="1i_0" departPos="10.10" departSpeed="0.00" departDelay="0.00" arrival="120.00" arrivalLane="4o_0" arrivalPos="492.80" arrivalSpeed="10.61" duration="108.00" routeLength="989.70" waitingTime="8.00" waitingCount="2" stopTime="0.00" timeLoss="37.65" rerouteNo="0" devices="tripinfo_WE_12" vType="truck" speedFactor="1.01" vaporized=""/>
    <tripinfo id="NS_39" depart="39.00" departLane="2i_0" departPos="10.10" departSpeed="0.00" departDelay="0.00" arrival="128.00" arrivalLane="4o_0" arrivalPos="492.80" arrivalSpeed="10.28" duration="89.00" routeLength="984.53" waitingTime="0.00" waitingCount="0" stopTime="0.00" timeLoss="13.87" rerouteNo="0" devices="tripinfo_NS_39" vType="truck" speedFactor="0.94" vaporized=""/>
    <tripinfo id="EW_53" depart="53.00" departLane="4i_0" departPos="4.10" departSpeed="0.00" departDelay="0.00" arrival="131.00" arrivalLane="1o_0" arrivalPos="492.80" arrivalSpeed="10.57" duration="78.00" routeLength="990.53" waitingTime="0.00" waitingCount="0" stopTime="0.00" timeLoss="8.94" rerouteNo="0" devices="tripinfo_EW_53" vType="car" speedFactor="1.03" vaporized=""/>
    <tripinfo id="WE_42" depart="42.00" departLane="1i_0" departPos="4.10" departSpeed="0.00" departDelay="0.00" arrival="132.00" arrivalLane="2o_0" arrivalPos="492.80" arrivalSpeed="9.57" duration="90.00" routeLength="995.90" waitingTime="0.00" waitingCount="0" stopTime="0.00" timeLoss="14.09" rerouteNo="0" devices="tripinfo_WE_42" vType="car" speedFactor="0.94" vaporized=""/>
    <tripinfo id="SN_53" depart="53.00" departLane="3i_0" departPos="4.10" departSpeed="0.00" departDelay="0.00" arrival="134.00" arrivalLane="4o_0" arrivalPos="492.80" arrivalSpeed="10.37" duration="81.00" routeLength="995.90" waitingTime="1.00" waitingCount="1" stopTime="0.00" timeLoss="13.38" rerouteNo="0" devices="tripinfo_SN_53" vType="car" speedFactor="1.05" vaporized=""/>
    <tripinfo id="NS_58" depart="58.00" departLane="2i_0" departPos="4.10" departSpeed="0.00" departDelay="0.00" arrival="134.00" arrivalLane="1o_0" arrivalPos="492.80" arrivalSpeed="12.08" duration="76.00" routeLength="995.90" waitingTime="1.00" waitingCount="1" stopTime="0.00" timeLoss="12.71" rerouteNo="0" devices="tripinfo_NS_58" vType="car" speedFactor="1.12" vaporized=""/>
    <tripinfo id="EW_68" depart="68.00" departLane="4i_0" departPos="4.10" departSpeed="0.00" departDelay="0.00" arrival="137.00" arrivalLane="1o_0" arrivalPos="492.80" arrivalSpeed="12.64" duration="69.00" routeLength="990.53" waitingTime="0.00" waitingCount="0" stopTime="0.00" timeLoss="7.68" rerouteNo="0" devices="tripinfo_EW_68" vType="car" speedFactor="1.16" vaporized=""/>
    <tripinfo id="WE_45" depart="45.00" departLane="1i_0" departPos="4.10" departSpeed="0.00" departDelay="0.00" arrival="139.00" arrivalLane="2o_0" arrivalPos="492.80" arrivalSpeed="9.36" duration="94.00" routeLength="995.90" waitingTime="0.00" waitingCount="0" stopTime="0.00" timeLoss="11.26" rerouteNo="0" devices="tripinfo_WE_45" vType="car" speedFactor="0.86" vaporized=""/>
    <tripinfo id="WE_50" depart="50.00" departLane="1i_0" departPos="10.10" departSpeed="0.00" departDelay="0.00" arrival="143.00" arrivalLane="4o_0" arrivalPos="492.80" arrivalSpeed="11.33" duration="93.00" routeLength="989.70" waitingTime="1.00" waitingCount="1" stopTime="0.00" timeLoss="25.08" rerouteNo="0" devices="tripinfo_WE_50" vType="truck" speedFactor="1.05" vaporized=""/>
    <tripinfo id="SN_59" depart="59.00" departLane="3i_0" departPos="4.10" departSpeed="0.00" departDelay="0.00" arrival="157.00" arrivalLane="1o_0" arrivalPos="492.80" arrivalSpeed="10.11" duration="98.00" routeLength="995.70" waitingTime="13.00" waitingCount="1" stopTime="0.00" timeLoss="26.72" rerouteNo="0" devices="tripinfo_SN_59" vType="car" speedFactor="0.99" vaporized=""/>
    <tripinfo id="EW_76" depart="76.00" departLane="4i_0" departPos="4.10" departSpeed="0.00" departDelay="0.00" arrival="161.00" arrivalLane="3o_0" arrivalPos="492.80" arrivalSpeed="10.61" duration="85.00" routeLength="995.90" waitingTime="4.00" waitingCount="1" stopTime="0.00" timeLoss="15.36" rerouteNo="0" devices="tripinfo_EW_76" vType="car" speedFactor="1.02" vaporized=""/>
    <tripinfo id="WE_67" depart="67.00" departLane="1i_0" departPos="4.10" departSpeed="0.00" departDelay="0.00" arrival="163.00" arrivalLane="2o_0" arrivalPos="492.80" arrivalSpeed="9.94" duration="96.00" routeLength="995.90" waitingTime="5.00" waitingCount="2" stopTime="0.00" timeLoss="20.61" rerouteNo="0" devices="tripinfo_WE_67" vType="car" speedFactor="0.94" vaporized=""/>
    <tripinfo id="EW_90" depart="90.00" departLane="4i_0" departPos="4.10" departSpeed="0.00" departDelay="0.00" arrival="164.00" arrivalLane="1o_0" arrivalPos="492.80" arrivalSpeed="12.07" duration="74.00" routeLength="990.53" waitingTime="1.00" waitingCount="1" stopTime="0.00" timeLoss="11.06" rerouteNo="0" devices="tripinfo_EW_90" vType="car" speedFactor="1.13" vaporized=""/>
    <tripinfo id="SN_63" depart="63.00" departLane="3i_0" departPos="4.10" departSpeed="0.00" departDelay="0.00" arrival="168.00" arrivalLane="4o_0" arrivalPos="492.80" arrivalSpeed="9.21" duration="105.00" routeLength="995.90" waitingTime="10.00" waitingCount="2" stopTime="0.00" timeLoss="28.24" rerouteNo="0" devices="tripinfo_SN_63" vType="car" speedFactor="0.93" vaporized=""/>
    <tripinfo id="EW_96" depart="96.00" departLane="4i_0" departPos="4.10" departSpeed="0.00" departDelay="0.00" arrival="170.00" arrivalLane="3o_0" arrivalPos="492.80" arrivalSpeed="11.74" duration="74.00" routeLength="995.90" waitingTime="0.00" waitingCount="0" stopTime="0.00" timeLoss="11.86" rerouteNo="0" devices="tripinfo_EW_96" vType="car" speedFactor="1.15" vaporized=""/>
    <tripinfo id="SN_64" depart="66.00" departLane="3i_0" departPos="4.10" departSpeed="0.00" departDelay="2.00" arrival="172.00" arrivalLane="4o_0" arrivalPos="492.80" arrivalSpeed="9.10" duration="106.00" routeLength="995.90" waitingTime="5.00" waitingCount="1" stopTime="0.00" timeLoss="25.75" rerouteNo="0" devices="tripinfo_SN_64" vType="car" speedFactor="0.88" vaporized=""/>
    <tripinfo id="WE_93" depart="93.00" departLane="1i_0" departPos="4.10" departSpeed="0.00" departDelay="0.00" arrival="172.00" arrivalLane="2o_0" arrivalPos="492.80" arrivalSpeed="12.98" duration="79.00" routeLength="995.90" waitingTime="1.00" waitingCount="1" stopTime="0.00" timeLoss="18.55" rerouteNo="0" devices="tripinfo_WE_93" vType="car" speedFactor="1.18" vaporized=""/>
    <tripinfo id="NS_77" depart="77.00" departLane="2i_0" departPos="10.10" departSpeed="0.00" departDelay="0.00" arrival="175.00" arrivalLane="4o_0" arrivalPos="492.80" arrivalSpeed="11.01" duration="98.00" routeLength="984.53" waitingTime="2.00" waitingCount="2" stopTime="0.00" timeLoss="27.87" rerouteNo="0" devices="tripinfo_NS_77" vType="truck" speedFactor="1.01" vaporized=""/>
    <tripinfo id="EW_91" depart="94.00" departLane="4i_0" departPos="4.10" departSpeed="0.00" departDelay="3.00" arrival="177.00" arrivalLane="1o_0" arrivalPos="492.80" arrivalSpeed="9.64" duration="83.00" routeLength="990.53" waitingTime="0.00" waitingCount="0" stopTime="0.00" timeLoss="7.06" rerouteNo="0" devices="tripinfo_EW_91" vType="car" speedFactor="0.93" vaporized=""/>
    <tripinfo id="WE_84" depart="84.00" departLane="1i_0" departPos="4.10" departSpeed="0.00" departDelay="0.00" arrival="179.00" arrivalLane="4o_0" arrivalPos="492.80" arrivalSpeed="9.91" duration="95.00" routeLength="995.70" waitingTime="1.00" waitingCount="1" stopTime="0.00" timeLoss="17.18" rerouteNo="0" devices="tripinfo_WE_84" vType="car" speedFactor="0.92" vaporized=""/>
    <tripinfo id="SN_65" depart="69.00" departLane="3i_0" departPos="4.10" departSpeed="0.00" departDelay="4.00" arrival="181.00" arrivalLane="4o_0" arrivalPos="492.80" arrivalSpeed="9.74" duration="112.00" routeLength="995.90" waitingTime="11.00" waitingCount="3" stopTime="0.00" timeLoss="36.46" rerouteNo="0" devices="tripinfo_SN_65" vType="car" speedFactor="0.94" vaporized=""/>
    <tripinfo id="EW_102" depart="102.00" departLane="4i_0" departPos="4.10" departSpeed="0.00" departDelay="0.00" arrival="182.00" arrivalLane="3o_0" arrivalPos="492.80" arrivalSpeed="10.85" duration="80.00" routeLength="995.90" waitingTime="0.00" waitingCount="0" stopTime="0.00" timeLoss="9.38" rerouteNo="0" devices="tripinfo_EW_102" vType="car" speedFactor="1.01" vaporized=""/>
    <tripinfo id="SN_77" depart="77.00" departLane="3i_0" departPos="10.10" departSpeed="0.00" departDelay="0.00" arrival="185.00" arrivalLane="2o_0" arrivalPos="492.80" arrivalSpeed="10.58" duration="108.00" routeLength="984.53" waitingTime="4.00" waitingCount="2" stopTime="0.00" timeLoss="36.54" rerouteNo="0" devices="tripinfo_SN_77" vType="truck" speedFactor="0.99" vaporized=""/>
    <tripinfo id="NS_80" depart="81.00" departLane="2i_0" departPos="4.10" departSpeed="0.00" departDelay="1.00" arrival="191.00" arrivalLane="1o_0" arrivalPos="492.80" arrivalSpeed="9.13" duration="110.00" routeLength="995.90" waitingTime="2.00" waitingCount="2" stopTime="0.00" timeLoss="24.15" rerouteNo="0" devices="tripinfo_NS_80" vType="car" speedFactor="0.83" vaporized=""/>
    <tripinfo id="EW_112" depart="112.00" departLane="4i_0" departPos="4.10" departSpeed="0.00" departDelay="0.00" arrival="191.00" arrivalLane="3o_0" arrivalPos="492.80" arrivalSpeed="11.15" duration="79.00" routeLength="995.90" waitingTime="0.00" waitingCount="0" stopTime="0.00" timeLoss="8.92" rerouteNo="0" devices="tripinfo_EW_112" vType="car" speedFactor="1.02" vaporized=""/>
    <tripinfo id="NS_84" depart="84.00" departLane="2i_0" departPos="4.10" departSpeed="0.00" departDelay="0.00" arrival="193.00" arrivalLane="1o_0" arrivalPos="492.80" arrivalSpeed="9.49" duration="109.00" routeLength="995.90" waitingTime="1.00" waitingCount="1" stopTime="0.00" timeLoss="33.93" rerouteNo="0" devices="tripinfo_NS_84" vType="car" speedFactor="0.95" vaporized=""/>
    <tripinfo id="SN_79" depart="81.00" departLane="3i_0" departPos="4.10" departSpeed="0.00" departDelay="2.00" arrival="194.00" arrivalLane="4o_0" arrivalPos="492.80" arrivalSpeed="9.60" duration="113.00" routeLength="995.90" waitingTime="3.00" waitingCount="1" stopTime="0.00" timeLoss="33.25" rerouteNo="0" devices="tripinfo_SN_79" vType="car" speedFactor="0.89" vaporized=""/>
    <tripinfo id="NS_106" depart="106.00" departLane="2i_0" departPos="4.10" departSpeed="0.00" departDelay="0.00" arrival="196.00" arrivalLane="4o_0" arrivalPos="492.80" arrivalSpeed="11.91" duration="90.00" routeLength="990.53" waitingTime="1.00" waitingCount="1" stopTime="0.00" timeLoss="29.26" rerouteNo="0" devices="tripinfo_NS_106" vType="car" speedFactor="1.17" vaporized=""/>
    <tripinfo id="SN_82" depart="87.00" departLane="3i_0" departPos="4.10" departSpeed="0.00" departDelay="5.00" arrival="201.00" arrivalLane="4o_0" arrivalPos="492.80" arrivalSpeed="9.65" duration="114.00" routeLength="995.90" waitingTime="4.00" waitingCount="2" stopTime="0.00" timeLoss="32.84" rerouteNo="0" devices="tripinfo_SN_82" vType="car" speedFactor="0.87" vaporized=""/>
    <tripinfo id="SN_110" depart="110.00" departLane="3i_0" departPos="4.10" departSpeed="0.00" departDelay="0.00" arrival="203.00" arrivalLane="4o_0" arrivalPos="492.80" arrivalSpeed="10.00" duration="93.00" routeLength="995.90" waitingTime="0.00" waitingCount="0" stopTime="0.00" timeLoss="21.58" rerouteNo="0" devices="tripinfo_SN_110" vType="car" speedFactor="0.99" vaporized=""/>
    <tripinfo id="SN_125" depart="125.00" departLane="3i_0" departPos="4.10" departSpeed="0.00" departDelay="0.00" arrival="205.00" arrivalLane="4o_0" arrivalPos="492.80" arrivalSpeed="12.14" duration="80.00" routeLength="995.90" waitingTime="0.00" waitingCount="0" stopTime="0.00" timeLoss="19.25" rerouteNo="0" devices="tripinfo_SN_125" vType="car" speedFactor="1.18" vaporized=""/>
    <tripinfo id="NS_127" depart="127.00" departLane="2i_0" departPos="4.10" departSpeed="0.00" departDelay="0.00" arrival="208.00" arrivalLane="3o_0" arrivalPos="492.80" arrivalSpeed="11.64" duration="81.00" routeLength="995.70" waitingTime="2.00" waitingCount="2" stopTime="0.00" timeLoss="16.50" rerouteNo="0" devices="tripinfo_NS_127" vType="car" speedFactor="1.10" vaporized=""/>
    <tripinfo id="WE_125" depart="125.00" departLane="1i_0" departPos="4.10" departSpeed="0.00" departDelay="0.00" arrival="211.00" arrivalLane="2o_0" arrivalPos="492.80" arrivalSpeed="10.37" duration="86.00" routeLength="995.90" waitingTime="3.00" waitingCount="1" stopTime="0.00" timeLoss="12.69" rerouteNo="0" devices="tripinfo_WE_125" vType="car" speedFactor="0.97" vaporized=""/>
    <tripinfo id="NS_141" depart="141.00" departLane="2i_0" departPos="4.10" departSpeed="0.00" departDelay="0.00" arrival="223.00" arrivalLane="4o_0" arrivalPos="492.80" arrivalSpeed="10.78" duration="82.00" routeLength="990.53" waitingTime="1.00" waitingCount="1" stopTime="0.00" timeLoss="12.95" rerouteNo="0" devices="tripinfo_NS_141" vType="car" speedFactor="1.03" vaporized=""/>
    <tripinfo id="SN_148" depart="148.00" departLane="3i_0" departPos="4.10" departSpeed="0.00" departDelay="0.00" arrival="223.00" arrivalLane="2o_0" arrivalPos="492.80" arrivalSpeed="12.08" duration="75.00" routeLength="990.53" waitingTime="0.00" waitingCount="0" stopTime="0.00" timeLoss="9.88" rerouteNo="0" devices="tripinfo_SN_148" vType="car" speedFactor="1.09" vaporized=""/>
    <tripinfo id="SN_144" depart="144.00" departLane="3i_0" departPos="4.10" departSpeed="0.00" departDelay="0.00" arrival="224.00" arrivalLane="4o_0" arrivalPos="492.80" arrivalSpeed="10.95" duration="80.00" routeLength="995.90" waitingTime="0.00" waitingCount="0" stopTime="0.00" timeLoss="12.21" rerouteNo="0" devices="tripinfo_SN_144" vType="car" speedFactor="1.04" vaporized=""/>
    <tripinfo id="WE_131" depart="131.00" departLane="1i_0" departPos="4.10" departSpeed="0.00" departDelay="0.00" arrival="226.00" arrivalLane="3o_0" arrivalPos="492.80" arrivalSpeed="8.89" duration="95.00" routeLength="990.53" waitingTime="2.00" waitingCount="1" stopTime="0.00" timeLoss="16.56" rerouteNo="0" devices="tripinfo_WE_131" vType="car" speedFactor="0.90" vaporized=""/>
    <tripinfo id="EW_143" depart="143.00" departLane="4i_0" departPos="4.10" departSpeed="0.00" departDelay="0.00" arrival="227.00" arrivalLane="2o_0" arrivalPos="492.80" arrivalSpeed="11.72" duration="84.00" routeLength="995.70" waitingTime="3.00" waitingCount="2" stopTime="0.00" timeLoss="18.51" rerouteNo="0" devices="tripinfo_EW_143" vType="car" speedFactor="1.09" vaporized=""/>
    <tripinfo id="EW_144" depart="145.00" departLane="4i_0" departPos="4.10" departSpeed="0.00" departDelay="1.00" arrival="230.00" arrivalLane="1o_0" arrivalPos="492.80" arrivalSpeed="11.00" duration="85.00" routeLength="990.53" waitingTime="2.00" waitingCount="1" stopTime="0.00" timeLoss="17.16" rerouteNo="0" devices="tripinfo_EW_144" vType="car" speedFactor="1.04" vaporized=""/>
    <tripinfo id="SN_154" depart="154.00" departLane="3i_0" departPos="4.10" departSpeed="0.00" departDelay="0.00" arrival="233.00" arrivalLane="4o_0" arrivalPos="492.80" arrivalSpeed="10.87" duration="79.00" routeLength="995.90" waitingTime="0.00" waitingCount="0" stopTime="0.00" timeLoss="7.97" rerouteNo="0" devices="tripinfo_SN_154" vType="car" speedFactor="1.00" vaporized=""/>
    <tripinfo id="EW_161" depart="161.00" departLane="4i_0" departPos="4.10" departSpeed="0.00" departDelay="0.00" arrival="234.00" arrivalLane="2o_0" arrivalPos="492.80" arrivalSpeed="12.63" duration="73.00" routeLength="995.70" waitingTime="0.00" waitingCount="0" stopTime="0.00" timeLoss="11.80" rerouteNo="0" devices="tripinfo_EW_161" vType="car" speedFactor="1.17" vaporized=""/>
    <tripinfo id="WE_142" depart="142.00" departLane="1i_0" departPos="4.10" departSpeed="0.00" departDelay="0.00" arrival="241.00" arrivalLane="4o_0" arrivalPos="492.80" arrivalSpeed="9.88" duration="99.00" routeLength="995.70" waitingTime="12.00" waitingCount="1" stopTime="0.00" timeLoss="24.58" rerouteNo="0" devices="tripinfo_WE_142" vType="car" speedFactor="0.96" vaporized=""/>
    <tripinfo id="NS_155" depart="155.00" departLane="2i_0" departPos="4.10" departSpeed="0.00" departDelay="0.00" arrival="247.00" arrivalLane="4o_0" arrivalPos="492.80" arrivalSpeed="9.53" duration="92.00" routeLength="990.53" waitingTime="3.00" waitingCount="1" stopTime="0.00" timeLoss="13.37" rerouteNo="0" devices="tripinfo_NS_155" vType="car" speedFactor="0.90" vaporized=""/>
    <tripinfo id="NS_162" depart="163.00" departLane="2i_0" departPos="10.10" departSpeed="0.00" departDelay="1.00" arrival="250.00" arrivalLane="4o_0" arrivalPos="492.80" arrivalSpeed="10.76" duration="87.00" routeLength="984.53" waitingTime="0.00" waitingCount="0" stopTime="0.00" timeLoss="17.11" rerouteNo="0" devices="tripinfo_NS_162" vType="truck" speedFactor="1.01" vaporized=""/>
    <tripinfo id="NS_159" depart="159.00" departLane="2i_0" departPos="4.10" departSpeed="0.00" departDelay="0.00" arrival="252.00" arrivalLane="1o_0" arrivalPos="492.80" arrivalSpeed="8.44" duration="93.00" routeLength="995.90" waitingTime="0.00" waitingCount="0" stopTime="0.00" timeLoss="10.36" rerouteNo="0" devices="tripinfo_NS_159" vType="car" speedFactor="0.85" vaporized=""/>
    <tripinfo id="WE_156" depart="157.00" departLane="1i_0" departPos="4.10" departSpeed="0.00" departDelay="1.00" arrival="253.00" arrivalLane="2o_0" arrivalPos="492.80" arrivalSpeed="9.56" duration="96.00" routeLength="995.90" waitingTime="2.00" waitingCount="1" stopTime="0.00" timeLoss="14.56" rerouteNo="0" devices="tripinfo_WE_156" vType="car" speedFactor="0.88" vaporized=""/>
    <tripinfo id="EW_175" depart="175.00" departLane="4i_0" departPos="4.10" departSpeed="0.00" departDelay="0.00" arrival="254.00" arrivalLane="1o_0" arrivalPos="492.80" arrivalSpeed="11.02" duration="79.00" routeLength="990.53" waitingTime="0.00" waitingCount="0" stopTime="0.00" timeLoss="9.74" rerouteNo="0" devices="tripinfo_EW_175" vType="car" speedFactor="1.02" vaporized=""/>
    <tripinfo id="NS_169" depart="169.00" departLane="2i_0" departPos="4.10" departSpeed="0.00" departDelay="0.00" arrival="257.00" arrivalLane="1o_0" arrivalPos="492.80" arrivalSpeed="10.13" duration="88.00" routeLength="995.90" waitingTime="1.00" waitingCount="1" stopTime="0.00" timeLoss="17.31" rerouteNo="0" devices="tripinfo_NS_169" vType="car" speedFactor="1.00" vaporized=""/>
    <tripinfo id="WE_159" depart="159.00" departLane="1i_0" departPos="4.10" departSpeed="0.00" departDelay="0.00" arrival="263.00" arrivalLane="4o_0" arrivalPos="492.80" arrivalSpeed="9.17" duration="104.00" routeLength="995.70" waitingTime="3.00" waitingCount="2" stopTime="0.00" timeLoss="20.42" rerouteNo="0" devices="tripinfo_WE_159" vType="car" speedFactor="0.85" vaporized=""/>
    <tripinfo id="WE_166" depart="166.00" departLane="1i_0" departPos="4.10" departSpeed="0.00" departDelay="0.00" arrival="264.00" arrivalLane="4o_0" arrivalPos="492.80" arrivalSpeed="11.06" duration="98.00" routeLength="995.70" waitingTime="0.00" waitingCount="0" stopTime="0.00" timeLoss="33.51" rerouteNo="0" devices="tripinfo_WE_166" vType="car" speedFactor="1.10" vaporized=""/>
    <tripinfo id="EW_186" depart="186.00" departLane="4i_0" departPos="4.10" departSpeed="0.00" departDelay="0.00" arrival="265.00" arrivalLane="3o_0" arrivalPos="492.80" arrivalSpeed="10.90" duration="79.00" routeLength="995.90" waitingTime="0.00" waitingCount="0" stopTime="0.00" timeLoss="9.15" rerouteNo="0" devices="tripinfo_EW_186" vType="car" speedFactor="1.02" vaporized=""/>
    <tripinfo id="WE_180" depart="180.00" departLane="1i_0" departPos="4.10" departSpeed="0.00" departDelay="0.00" arrival="267.00" arrivalLane="2o_0" arrivalPos="492.80" arrivalSpeed="11.35" duration="87.00" routeLength="995.90" waitingTime="2.00" waitingCount="2" stopTime="0.00" timeLoss="21.89" rerouteNo="0" devices="tripinfo_WE_180" vType="car" speedFactor="1.08" vaporized=""/>
    <tripinfo id="WE_172" depart="172.00" departLane="1i_0" departPos="4.10" departSpeed="0.00" departDelay="0.00" arrival="268.00" arrivalLane="4o_0" arrivalPos="492.80" arrivalSpeed="8.93" duration="96.00" routeLength="995.70" waitingTime="0.00" waitingCount="0" stopTime="0.00" timeLoss="16.90" rerouteNo="0" devices="tripinfo_WE_172" vType="car" speedFactor="0.90" vaporized=""/>
    <tripinfo id="SN_170" depart="170.00" departLane="3i_0" departPos="10.10" departSpeed="0.00" departDelay="0.00" arrival="270.00" arrivalLane="4o_0" arrivalPos="492.80" arrivalSpeed="10.71" duration="100.00" routeLength="989.90" waitingTime="5.00" waitingCount="1" stopTime="0.00" timeLoss="29.57" rerouteNo="0" devices="tripinfo_SN_170" vType="truck" speedFactor="1.00" vaporized=""/>
    <tripinfo id="NS_174" depart="174.00" departLane="2i_0" departPos="4.10" departSpeed="0.00" departDelay="0.00" arrival="272.00" arrivalLane="4o_0" arrivalPos="492.80" arrivalSpeed="12.12" duration="98.00" routeLength="990.53" waitingTime="9.00" waitingCount="3" stopTime="0.00" timeLoss="36.51" rerouteNo="0" devices="tripinfo_NS_174" vType="car" speedFactor="1.14" vaporized=""/>
    <tripinfo id="EW_191" depart="192.00" departLane="4i_0" departPos="4.10" departSpeed="0.00" departDelay="1.00" arrival="272.00" arrivalLane="1o_0" arrivalPos="492.80" arrivalSpeed="10.50" duration="80.00" routeLength="990.53" waitingTime="0.00" waitingCount="0" stopTime="0.00" timeLoss="12.10" rerouteNo="0" devices="tripinfo_EW_191" vType="car" speedFactor="1.04" vaporized=""/>
    <tripinfo id="EW_190" depart="190.00" departLane="4i_0" departPos="4.10" departSpeed="0.00" departDelay="0.00" arrival="278.00" arrivalLane="3o_0" arrivalPos="492.80" arrivalSpeed="9.54" duration="88.00" routeLength="995.90" waitingTime="0.00" waitingCount="0" stopTime="0.00" timeLoss="9.20" rerouteNo="0" devices="tripinfo_EW_190" vType="car" speedFactor="0.91" vaporized=""/>
    <tripinfo id="SN_176" depart="176.00" departLane="3i_0" departPos="4.10" departSpeed="0.00" departDelay="0.00" arrival="279.00" arrivalLane="1o_0" arrivalPos="492.80" arrivalSpeed="10.40" duration="103.00" routeLength="995.70" waitingTime="7.00" waitingCount="2" stopTime="0.00" timeLoss="29.76" rerouteNo="0" devices="tripinfo_SN_176" vType="car" speedFactor="0.97" vaporized=""/>
    <tripinfo id="NS_187" depart="187.00" departLane="2i_0" departPos="4.10" departSpeed="0.00" departDelay="0.00" arrival="281.00" arrivalLane="4o_0" arrivalPos="492.80" arrivalSpeed="9.85" duration="94.00" routeLength="990.53" waitingTime="3.00" waitingCount="2" stopTime="0.00" timeLoss="22.13" rerouteNo="0" devices="tripinfo_NS_187" vType="car" speedFactor="0.99" vaporized=""/>
    <tripinfo id="SN_185" depart="185.00" departLane="3i_0" departPos="4.10" departSpeed="0.00" departDelay="0.00" arrival="282.00" arrivalLane="4o_0" arrivalPos="492.80" arrivalSpeed="11.84" duration="97.00" routeLength="995.90" waitingTime="5.00" waitingCount="3" stopTime="0.00" timeLoss="33.89" rerouteNo="0" devices="tripinfo_SN_185" vType="car" speedFactor="1.12" vaporized=""/>
    <tripinfo id="WE_189" depart="189.00" departLane="1i_0" departPos="4.10" departSpeed="0.00" departDelay="0.00" arrival="283.00" arrivalLane="3o_0" arrivalPos="492.80" arrivalSpeed="9.54" duration="94.00" routeLength="990.53" waitingTime="5.00" waitingCount="1" stopTime="0.00" timeLoss="18.56" rerouteNo="0" devices="tripinfo_WE_189" vType="car" speedFactor="0.94" vaporized=""/>
    <tripinfo id="NS_194" depart="194.00" departLane="2i_0" departPos="4.10" departSpeed="0.00" departDelay="0.00" arrival="284.00" arrivalLane="1o_0" arrivalPos="492.80" arrivalSpeed="10.93" duration="90.00" routeLength="995.90" waitingTime="0.00" waitingCount="0" stopTime="0.00" timeLoss="20.08" rerouteNo="0" devices="tripinfo_NS_194" vType="car" speedFactor="1.02" vaporized=""/>
    <tripinfo id="NS_197" depart="197.00" departLane="2i_0" departPos="4.10" departSpeed="0.00" departDelay="0.00" arrival="286.00" arrivalLane="1o_0" arrivalPos="492.80" arrivalSpeed="10.97" duration="89.00" routeLength="995.90" waitingTime="0.00" waitingCount="0" stopTime="0.00" timeLoss="19.80" rerouteNo="0" devices="tripinfo_NS_197" vType="car" speedFactor="1.02" vaporized=""/>
    <tripinfo id="SN_189" depart="191.00" departLane="3i_0" departPos="4.10" departSpeed="0.00" departDelay="2.00" arrival="291.00" arrivalLane="2o_0" arrivalPos="492.80" arrivalSpeed="9.49" duration="100.00" routeLength="990.53" waitingTime="2.00" waitingCount="2" stopTime="0.00" timeLoss="20.37" rerouteNo="0" devices="tripinfo_SN_189" vType="car" speedFactor="0.88" vaporized=""/>
    <tripinfo id="WE_191" depart="193.00" departLane="1i_0" departPos="10.10" departSpeed="0.00" departDelay="2.00" arrival="294.00" arrivalLane="4o_0" arrivalPos="492.80" arrivalSpeed="10.21" duration="101.00" routeLength="989.70" waitingTime="3.00" waitingCount="1" stopTime="0.00" timeLoss="27.61" rerouteNo="0" devices="tripinfo_WE_191" vType="truck" speedFactor="0.96" vaporized=""/>
    <tripinfo id="SN_202" depart="202.00" departLane="3i_0" departPos="4.10" departSpeed="0.00" departDelay="0.00" arrival="295.00" arrivalLane="1o_0" arrivalPos="492.80" arrivalSpeed="11.14" duration="93.00" routeLength="995.70" waitingTime="6.00" waitingCount="1" stopTime="0.00" timeLoss="25.87" rerouteNo="0" devices="tripinfo_SN_202" vType="car" speedFactor="1.06" vaporized=""/>
    <tripinfo id="EW_211" depart="211.00" departLane="4i_0" departPos="4.10" departSpeed="0.00" departDelay="0.00" arrival="296.00" arrivalLane="2o_0" arrivalPos="492.80" arrivalSpeed="10.07" duration="85.00" routeLength="995.70" waitingTime="0.00" waitingCount="0" stopTime="0.00" timeLoss="13.20" rerouteNo="0" devices="tripinfo_EW_211" vType="car" speedFactor="0.98" vaporized=""/>
    <tripinfo id="WE_211" depart="211.00" departLane="1i_0" departPos="4.10" departSpeed="0.00" departDelay="0.00" arrival="297.00" arrivalLane="3o_0" arrivalPos="492.80" arrivalSpeed="9.97" duration="86.00" routeLength="990.53" waitingTime="0.00" waitingCount="0" stopTime="0.00" timeLoss="11.96" rerouteNo="0" devices="tripinfo_WE_211" vType="car" speedFactor="0.96" vaporized=""/>
    <tripinfo id="NS_198" depart="200.00" departLane="2i_0" departPos="4.10" departSpeed="0.00" departDelay="2.00" arrival="302.00" arrivalLane="1o_0" arrivalPos="492.80" arrivalSpeed="10.28" duration="102.00" routeLength="995.90" waitingTime="3.00" waitingCount="3" stopTime="0.00" timeLoss="28.87" rerouteNo="0" devices="tripinfo_NS_198" vType="car" speedFactor="0.97" vaporized=""/>
    <tripinfo id="WE_216" depart="216.00" departLane="1i_0" departPos="4.10" departSpeed="0.00" departDelay="0.00" arrival="304.00" arrivalLane="4o_0" arrivalPos="492.80" arrivalSpeed="9.90" duration="88.00" routeLength="995.70" waitingTime="2.00" waitingCount="1" stopTime="0.00" timeLoss="17.13" rerouteNo="0" devices="tripinfo_WE_216" vType="car" speedFactor="1.01" vaporized=""/>