<?xml version="1.0" encoding="UTF-8"?>

<!-- generated on 2024-05-04 18:45:55 by Eclipse SUMO sumo Version 1.19.0
<configuration xmlns:xsi="http://www.w3.org/2001/XMLSchema-instance" xsi:noNamespaceSchemaLocation="http://sumo.dlr.de/xsd/sumoConfiguration.xsd">

    <input>
        <net-file value="test5.net.xml"/>
        <route-files value="route_gen.rou.xml"/>
    </input>

    <output>
        <tripinfo-output value="tripinfo_epi435.xml"/>
    </output>

    <report>
        <no-warnings value="true"/>
    </report>

    <traci_server>
        <remote-port value="45651"/>
    </traci_server>

</configuration>
-->

<tripinfos xmlns:xsi="http://www.w3.org/2001/XMLSchema-instance" xsi:noNamespaceSchemaLocation="http://sumo.dlr.de/xsd/tripinfo_file.xsd">
    <tripinfo id="EW_1" depart="1.00" departLane="4i_0" departPos="4.10" departSpeed="0.00" departDelay="0.00" arrival="81.00" arrivalLane="2o_0" arrivalPos="492.80" arrivalSpeed="11.03" duration="80.00" routeLength="995.70" waitingTime="0.00" waitingCount="0" stopTime="0.00" timeLoss="10.16" rerouteNo="0" devices="tripinfo_EW_1" vType="car" speedFactor="1.01" vaporized=""/>
    <tripinfo id="NS_4" depart="4.00" departLane="2i_0" departPos="4.10" departSpeed="0.00" departDelay="0.00" arrival="83.00" arrivalLane="3o_0" arrivalPos="492.80" arrivalSpeed="11.91" duration="79.00" routeLength="995.70" waitingTime="1.00" waitingCount="1" stopTime="0.00" timeLoss="13.73" rerouteNo="0" devices="tripinfo_NS_4" vType="car" speedFactor="1.08" vaporized=""/>
    <tripinfo id="WE_0" depart="0.00" departLane="1i_0" departPos="4.10" departSpeed="0.00" departDelay="0.00" arrival="85.00" arrivalLane="4o_0" arrivalPos="492.80" arrivalSpeed="11.44" duration="85.00" routeLength="995.70" waitingTime="5.00" waitingCount="1" stopTime="0.00" timeLoss="18.36" rerouteNo="0" devices="tripinfo_WE_0" vType="car" speedFactor="1.06" vaporized=""/>
    <tripinfo id="EW_12" depart="12.00" departLane="4i_0" departPos="4.10" departSpeed="0.00" departDelay="0.00" arrival="90.00" arrivalLane="3o_0" arrivalPos="492.80" arrivalSpeed="10.56" duration="78.00" routeLength="995.90" waitingTime="0.00" waitingCount="0" stopTime="0.00" timeLoss="9.64" rerouteNo="0" devices="tripinfo_EW_12" vType="car" speedFactor="1.05" vaporized=""/>
    <tripinfo id="NS_10" depart="10.00" departLane="2i_0" departPos="4.10" departSpeed="0.00" departDelay="0.00" arrival="93.00" arrivalLane="4o_0" arrivalPos="492.80" arrivalSpeed="10.22" duration="83.00" routeLength="990.53" waitingTime="1.00" waitingCount="1" stopTime="0.00" timeLoss="14.19" rerouteNo="0" devices="tripinfo_NS_10" vType="car" speedFactor="1.03" vaporized=""/>
    <tripinfo id="WE_1" depart="3.00" departLane="1i_0" departPos="4.10" departSpeed="0.00" departDelay="2.00" arrival="94.00" arrivalLane="2o_0" arrivalPos="492.80" arrivalSpeed="9.26" duration="91.00" routeLength="995.90" waitingTime="0.00" waitingCount="0" stopTime="0.00" timeLoss="15.34" rerouteNo="0" devices="tripinfo_WE_1" vType="car" speedFactor="0.94" vaporized=""/>
    <tripinfo id="NS_20" depart="20.00" departLane="2i_0" departPos="4.10" departSpeed="0.00" departDelay="0.00" arrival="100.00" arrivalLane="1o_0" arrivalPos="492.80" arrivalSpeed="10.96" duration="80.00" routeLength="995.90" waitingTime="1.00" waitingCount="1" stopTime="0.00" timeLoss="12.46" rerouteNo="0" devices="tripinfo_NS_20" vType="car" speedFactor="1.05" vaporized=""/>
    <tripinfo id="SN_32" depart="32.00" departLane="3i_0" departPos="4.10" departSpeed="0.00" departDelay="0.00" arrival="103.00" arrivalLane="4o_0" arrivalPos="492.80" arrivalSpeed="11.62" duration="71.00" routeLength="995.90" waitingTime="0.00" waitingCount="0" stopTime="0.00" timeLoss="7.69" rerouteNo="0" devices="tripinfo_SN_32" vType="car" speedFactor="1.12" vaporized=""/>
    <tripinfo id="SN_11" depart="11.00" departLane="3i_0" departPos="4.10" departSpeed="0.00" departDelay="0.00" arrival="104.00" arrivalLane="2o_0" arrivalPos="492.80" arrivalSpeed="9.01" duration="93.00" routeLength="990.53" waitingTime="0.00" waitingCount="0" stopTime="0.00" timeLoss="8.32" rerouteNo="0" devices="tripinfo_SN_11" vType="car" speedFactor="0.83" vaporized=""/>
    <tripinfo id="EW_13" depart="15.00" departLane="4i_0" departPos="4.10" departSpeed="0.00" departDelay="2.00" arrival="106.00" arrivalLane="3o_0" arrivalPos="492.80" arrivalSpeed="9.20" duration="91.00" routeLength="995.90" waitingTime="1.00" waitingCount="1" stopTime="0.00" timeLoss="10.99" rerouteNo="0" devices="tripinfo_EW_13" vType="car" speedFactor="0.89" vaporized=""/>
    <tripinfo id="SN_13" depart="13.00" departLane="3i_0" departPos="4.10" departSpeed="0.00" departDelay="0.00" arrival="106.00" arrivalLane="2o_0" arrivalPos="492.80" arrivalSpeed="9.86" duration="93.00" routeLength="990.53" waitingTime="0.00" waitingCount="0" stopTime="0.00" timeLoss="17.84" rerouteNo="0" devices="tripinfo_SN_13" vType="car" speedFactor="0.94" vaporized=""/>
    <tripinfo id="EW_18" depart="21.00" departLane="4i_0" departPos="4.10" departSpeed="0.00" departDelay="3.00" arrival="108.00" arrivalLane="3o_0" arrivalPos="492.80" arrivalSpeed="11.30" duration="87.00" routeLength="995.90" waitingTime="0.00" waitingCount="0" stopTime="0.00" timeLoss="21.53" rerouteNo="0" devices="tripinfo_EW_18" vType="car" speedFactor="1.09" vaporized=""/>
    <tripinfo id="EW_19" depart="23.00" departLane="4i_0" departPos="4.10" departSpeed="0.00" departDelay="4.00" arrival="111.00" arrivalLane="3o_0" arrivalPos="492.80" arrivalSpeed="10.79" duration="88.00" routeLength="995.90" waitingTime="0.00" waitingCount="0" stopTime="0.00" timeLoss="18.56" rerouteNo="0" devices="tripinfo_EW_19" vType="car" speedFactor="1.03" vaporized=""/>
    <tripinfo id="EW_17" depart="18.00" departLane="4i_0" departPos="4.10" departSpeed="0.00" departDelay="1.00" arrival="114.00" arrivalLane="1o_0" arrivalPos="492.80" arrivalSpeed="8.89" duration="96.00" routeLength="990.53" waitingTime="0.00" waitingCount="0" stopTime="0.00" timeLoss="13.14" rerouteNo="0" devices="tripinfo_EW_17" vType="car" speedFactor="0.86" vaporized=""/>
    <tripinfo id="SN_38" depart="38.00" departLane="3i_0" departPos="4.10" departSpeed="0.00" departDelay="0.00" arrival="118.00" arrivalLane="2o_0" arrivalPos="492.80" arrivalSpeed="9.83" duration="80.00" routeLength="990.53" waitingTime="0.00" waitingCount="0" stopTime="0.00" timeLoss="8.95" rerouteNo="0" devices="tripinfo_SN_38" vType="car" speedFactor="0.99" vaporized=""/>
    <tripinfo id="NS_40" depart="40.00" departLane="2i_0" departPos="4.10" departSpeed="0.00" departDelay="0.00" arrival="129.00" arrivalLane="4o_0" arrivalPos="492.80" arrivalSpeed="9.45" duration="89.00" routeLength="990.53" waitingTime="0.00" waitingCount="0" stopTime="0.00" timeLoss="12.97" rerouteNo="0" devices="tripinfo_NS_40" vType="car" speedFactor="0.93" vaporized=""/>
    <tripinfo id="SN_41" depart="41.00" departLane="3i_0" departPos="4.10" departSpeed="0.00" departDelay="0.00" arrival="129.00" arrivalLane="2o_0" arrivalPos="492.80" arrivalSpeed="9.71" duration="88.00" routeLength="990.53" waitingTime="0.00" waitingCount="0" stopTime="0.00" timeLoss="7.88" rerouteNo="0" devices="tripinfo_SN_41" vType="car" speedFactor="0.88" vaporized=""/>
    <tripinfo id="NS_48" depart="48.00" departLane="2i_0" departPos="4.10" departSpeed="0.00" departDelay="0.00" arrival="136.00" arrivalLane="1o_0" arrivalPos="492.80" arrivalSpeed="10.24" duration="88.00" routeLength="995.90" waitingTime="1.00" waitingCount="1" stopTime="0.00" timeLoss="12.09" rerouteNo="0" devices="tripinfo_NS_48" vType="car" speedFactor="0.94" vaporized=""/>
    <tripinfo id="SN_50" depart="50.00" departLane="3i_0" departPos="4.10" departSpeed="0.00" departDelay="0.00" arrival="138.00" arrivalLane="4o_0" arrivalPos="492.80" arrivalSpeed="9.51" duration="88.00" routeLength="995.90" waitingTime="0.00" waitingCount="0" stopTime="0.00" timeLoss="12.48" rerouteNo="0" devices="tripinfo_SN_50" vType="car" speedFactor="0.94" vaporized=""/>
    <tripinfo id="SN_61" depart="61.00" departLane="3i_0" departPos="4.10" departSpeed="0.00" departDelay="0.00" arrival="142.00" arrivalLane="2o_0" arrivalPos="492.80" arrivalSpeed="10.71" duration="81.00" routeLength="990.53" waitingTime="0.00" waitingCount="0" stopTime="0.00" timeLoss="8.19" rerouteNo="0" devices="tripinfo_SN_61" vType="car" speedFactor="0.97" vaporized=""/>
    <tripinfo id="EW_51" depart="51.00" departLane="4i_0" departPos="4.10" departSpeed="0.00" departDelay="0.00" arrival="144.00" arrivalLane="2o_0" arrivalPos="492.80" arrivalSpeed="12.77" duration="93.00" routeLength="995.70" waitingTime="17.00" waitingCount="1" stopTime="0.00" timeLoss="31.86" rerouteNo="0" devices="tripinfo_EW_51" vType="car" speedFactor="1.16" vaporized=""/>
    <tripinfo id="WE_79" depart="79.00" departLane="1i_0" departPos="4.10" departSpeed="0.00" departDelay="0.00" arrival="153.00" arrivalLane="4o_0" arrivalPos="492.80" arrivalSpeed="11.89" duration="74.00" routeLength="995.70" waitingTime="0.00" waitingCount="0" stopTime="0.00" timeLoss="13.84" rerouteNo="0" devices="tripinfo_WE_79" vType="car" speedFactor="1.18" vaporized=""/>
    <tripinfo id="WE_69" depart="69.00" departLane="1i_0" departPos="4.10" departSpeed="0.00" departDelay="0.00" arrival="157.00" arrivalLane="2o_0" arrivalPos="492.80" arrivalSpeed="9.29" duration="88.00" routeLength="995.90" waitingTime="0.00" waitingCount="0" stopTime="0.00" timeLoss="10.65" rerouteNo="0" devices="tripinfo_WE_69" vType="car" speedFactor="0.92" vaporized=""/>
    <tripinfo id="NS_60" depart="60.00" departLane="2i_0" departPos="10.10" departSpeed="0.00" departDelay="0.00" arrival="161.00" arrivalLane="3o_0" arrivalPos="492.80" arrivalSpeed="11.19" duration="101.00" routeLength="989.70" waitingTime="6.00" waitingCount="3" stopTime="0.00" timeLoss="30.85" rerouteNo="0" devices="tripinfo_NS_60" vType="truck" speedFactor="1.01" vaporized=""/>
    <tripinfo id="EW_67" depart="67.00" departLane="4i_0" departPos="4.10" departSpeed="0.00" departDelay="0.00" arrival="165.00" arrivalLane="2o_0" arrivalPos="492.80" arrivalSpeed="8.02" duration="98.00" routeLength="995.70" waitingTime="0.00" waitingCount="0" stopTime="0.00" timeLoss="12.44" rerouteNo="0" devices="tripinfo_EW_67" vType="car" speedFactor="0.83" vaporized=""/>
    <tripinfo id="SN_84" depart="84.00" departLane="3i_0" departPos="4.10" departSpeed="0.00" departDelay="0.00" arrival="167.00" arrivalLane="2o_0" arrivalPos="492.80" arrivalSpeed="9.84" duration="83.00" routeLength="990.53" waitingTime="0.00" waitingCount="0" stopTime="0.00" timeLoss="11.87" rerouteNo="0" devices="tripinfo_SN_84" vType="car" speedFactor="0.99" vaporized=""/>
    <tripinfo id="NS_61" depart="64.00" departLane="2i_0" departPos="4.10" departSpeed="0.00" departDelay="3.00" arrival="168.00" arrivalLane="3o_0" arrivalPos="492.80" arrivalSpeed="10.19" duration="104.00" routeLength="995.70" waitingTime="7.00" waitingCount="4" stopTime="0.00" timeLoss="33.71" rerouteNo="0" devices="tripinfo_NS_61" vType="car" speedFactor="1.01" vaporized=""/>
    <tripinfo id="SN_78" depart="78.00" departLane="3i_0" departPos="4.10" departSpeed="0.00" departDelay="0.00" arrival="168.00" arrivalLane="4o_0" arrivalPos="492.80" arrivalSpeed="10.15" duration="90.00" routeLength="995.90" waitingTime="0.00" waitingCount="0" stopTime="0.00" timeLoss="13.66" rerouteNo="0" devices="tripinfo_SN_78" vType="car" speedFactor="0.93" vaporized=""/>
    <tripinfo id="SN_86" depart="86.00" departLane="3i_0" departPos="4.10" departSpeed="0.00" departDelay="0.00" arrival="170.00" arrivalLane="4o_0" arrivalPos="492.80" arrivalSpeed="10.48" duration="84.00" routeLength="995.90" waitingTime="0.00" waitingCount="0" stopTime="0.00" timeLoss="11.41" rerouteNo="0" devices="tripinfo_SN_86" vType="car" speedFactor="0.97" vaporized=""/>
    <tripinfo id="EW_68" depart="69.00" departLane="4i_0" departPos="4.10" departSpeed="0.00" departDelay="1.00" arrival="178.00" arrivalLane="3o_0" arrivalPos="492.80" arrivalSpeed="8.68" duration="109.00" routeLength="995.90" waitingTime="11.00" waitingCount="1" stopTime="0.00" timeLoss="27.74" rerouteNo="0" devices="tripinfo_EW_68" vType="car" speedFactor="0.87" vaporized=""/>
    <tripinfo id="NS_75" depart="75.00" departLane="2i_0" departPos="4.10" departSpeed="0.00" departDelay="0.00" arrival="178.00" arrivalLane="4o_0" arrivalPos="492.80" arrivalSpeed="9.70" duration="103.00" routeLength="990.53" waitingTime="2.00" waitingCount="1" stopTime="0.00" timeLoss="28.15" rerouteNo="0" devices="tripinfo_NS_75" vType="car" speedFactor="0.95" vaporized=""/>
    <tripinfo id="NS_62" depart="67.00" departLane="2i_0" departPos="4.10" departSpeed="0.00" departDelay="5.00" arrival="179.00" arrivalLane="1o_0" arrivalPos="492.80" arrivalSpeed="9.18" duration="112.00" routeLength="995.90" waitingTime="4.00" waitingCount="3" stopTime="0.00" timeLoss="32.45" rerouteNo="0" devices="tripinfo_NS_62" vType="car" speedFactor="0.89" vaporized=""/>
    <tripinfo id="NS_79" depart="79.00" departLane="2i_0" departPos="4.10" departSpeed="0.00" departDelay="0.00" arrival="179.00" arrivalLane="4o_0" arrivalPos="492.80" arrivalSpeed="12.54" duration="100.00" routeLength="990.53" waitingTime="1.00" waitingCount="1" stopTime="0.00" timeLoss="38.90" rerouteNo="0" devices="tripinfo_NS_79" vType="car" speedFactor="1.15" vaporized=""/>
    <tripinfo id="WE_85" depart="85.00" departLane="1i_0" departPos="4.10" departSpeed="0.00" departDelay="0.00" arrival="180.00" arrivalLane="3o_0" arrivalPos="492.80" arrivalSpeed="11.21" duration="95.00" routeLength="990.53" waitingTime="6.00" waitingCount="1" stopTime="0.00" timeLoss="25.39" rerouteNo="0" devices="tripinfo_WE_85" vType="car" speedFactor="1.02" vaporized=""/>
    <tripinfo id="EW_78" depart="78.00" departLane="4i_0" departPos="4.10" departSpeed="0.00" departDelay="0.00" arrival="181.00" arrivalLane="1o_0" arrivalPos="492.80" arrivalSpeed="12.43" duration="103.00" routeLength="990.53" waitingTime="11.00" waitingCount="2" stopTime="0.00" timeLoss="40.33" rerouteNo="0" devices="tripinfo_EW_78" vType="car" speedFactor="1.13" vaporized=""/>
    <tripinfo id="SN_97" depart="97.00" departLane="3i_0" departPos="4.10" departSpeed="0.00" departDelay="0.00" arrival="181.00" arrivalLane="4o_0" arrivalPos="492.80" arrivalSpeed="11.40" duration="84.00" routeLength="995.90" waitingTime="0.00" waitingCount="0" stopTime="0.00" timeLoss="18.88" rerouteNo="0" devices="tripinfo_SN_97" vType="car" speedFactor="1.09" vaporized=""/>
    <tripinfo id="SN_94" depart="94.00" departLane="3i_0" departPos="4.10" departSpeed="0.00" departDelay="0.00" arrival="183.00" arrivalLane="1o_0" arrivalPos="492.80" arrivalSpeed="9.79" duration="89.00" routeLength="995.70" waitingTime="0.00" waitingCount="0" stopTime="0.00" timeLoss="14.46" rerouteNo="0" devices="tripinfo_SN_94" vType="car" speedFactor="0.96" vaporized=""/>
    <tripinfo id="EW_80" depart="81.00" departLane="4i_0" departPos="4.10" departSpeed="0.00" departDelay="1.00" arrival="184.00" arrivalLane="1o_0" arrivalPos="492.80" arrivalSpeed="10.13" duration="103.00" routeLength="990.53" waitingTime="10.00" waitingCount="3" stopTime="0.00" timeLoss="33.10" rerouteNo="0" devices="tripinfo_EW_80" vType="car" speedFactor="1.01" vaporized=""/>
    <tripinfo id="SN_105" depart="106.00" departLane="3i_0" departPos="4.10" departSpeed="0.00" departDelay="1.00" arrival="186.00" arrivalLane="4o_0" arrivalPos="492.80" arrivalSpeed="11.94" duration="80.00" routeLength="995.90" waitingTime="0.00" waitingCount="0" stopTime="0.00" timeLoss="14.81" rerouteNo="0" devices="tripinfo_SN_105" vType="car" speedFactor="1.09" vaporized=""/>
    <tripinfo id="WE_93" depart="93.00" departLane="1i_0" departPos="10.10" departSpeed="0.00" departDelay="0.00" arrival="187.00" arrivalLane="2o_0" arrivalPos="492.80" arrivalSpeed="10.50" duration="94.00" routeLength="989.90" waitingTime="2.00" waitingCount="1" stopTime="0.00" timeLoss="19.83" rerouteNo="0" devices="tripinfo_WE_93" vType="truck" speedFactor="0.95" vaporized=""/>
    <tripinfo id="EW_87" depart="87.00" departLane="4i_0" departPos="4.10" departSpeed="0.00" departDelay="0.00" arrival="192.00" arrivalLane="1o_0" arrivalPos="492.80" arrivalSpeed="12.20" duration="105.00" routeLength="990.53" waitingTime="14.00" waitingCount="4" stopTime="0.00" timeLoss="44.99" rerouteNo="0" devices="tripinfo_EW_87" vType="car" speedFactor="1.18" vaporized=""/>
    <tripinfo id="WE_94" depart="97.00" departLane="1i_0" departPos="4.10" departSpeed="0.00" departDelay="3.00" arrival="192.00" arrivalLane="4o_0" arrivalPos="492.80" arrivalSpeed="10.17" duration="95.00" routeLength="995.70" waitingTime="1.00" waitingCount="1" stopTime="0.00" timeLoss="25.90" rerouteNo="0" devices="tripinfo_WE_94" vType="car" speedFactor="1.03" vaporized=""/>
    <tripinfo id="SN_109" depart="111.00" departLane="3i_0" departPos="4.10" departSpeed="0.00" departDelay="2.00" arrival="192.00" arrivalLane="2o_0" arrivalPos="492.80" arrivalSpeed="10.89" duration="81.00" routeLength="990.53" waitingTime="0.00" waitingCount="0" stopTime="0.00" timeLoss="10.39" rerouteNo="0" devices="tripinfo_SN_109" vType="car" speedFactor="1.00" vaporized=""/>
    <tripinfo id="EW_82" depart="85.00" departLane="4i_0" departPos="4.10" departSpeed="0.00" departDelay="3.00" arrival="194.00" arrivalLane="2o_0" arrivalPos="492.80" arrivalSpeed="12.69" duration="109.00" routeLength="995.70" waitingTime="16.00" waitingCount="3" stopTime="0.00" timeLoss="48.13" rerouteNo="0" devices="tripinfo_EW_82" vType="car" speedFactor="1.17" vaporized=""/>
    <tripinfo id="WE_103" depart="103.00" departLane="1i_0" departPos="4.10" departSpeed="0.00" departDelay="0.00" arrival="194.00" arrivalLane="3o_0" arrivalPos="492.80" arrivalSpeed="11.53" duration="91.00" routeLength="990.53" waitingTime="0.00" waitingCount="0" stopTime="0.00" timeLoss="23.15" rerouteNo="0" devices="tripinfo_WE_103" vType="car" speedFactor="1.04" vaporized=""/>
    <tripinfo id="EW_92" depart="93.00" departLane="4i_0" departPos="4.10" departSpeed="0.00" departDelay="1.00" arrival="196.00" arrivalLane="1o_0" arrivalPos="492.80" arrivalSpeed="12.04" duration="103.00" routeLength="990.53" waitingTime="8.00" waitingCount="2" stopTime="0.00" timeLoss="38.70" rerouteNo="0" devices="tripinfo_EW_92" vType="car" speedFactor="1.10" vaporized=""/>
    <tripinfo id="WE_104" depart="106.00" departLane="1i_0" departPos="4.10" departSpeed="0.00" departDelay="2.00" arrival="199.00" arrivalLane="3o_0" arrivalPos="492.80" arrivalSpeed="11.43" duration="93.00" routeLength="990.53" waitingTime="1.00" waitingCount="1" stopTime="0.00" timeLoss="24.82" rerouteNo="0" devices="tripinfo_WE_104" vType="car" speedFactor="1.04" vaporized=""/>
    <tripinfo id="WE_112" depart="114.00" departLane="1i_0" departPos="4.10" departSpeed="0.00" departDelay="2.00" arrival="210.00" arrivalLane="3o_0" arrivalPos="492.80" arrivalSpeed="8.53" duration="96.00" routeLength="990.53" waitingTime="1.00" waitingCount="1" stopTime="0.00" timeLoss="15.14" rerouteNo="0" devices="tripinfo_WE_112" vType="car" speedFactor="0.88" vaporized=""/>
    <tripinfo id="SN_112" depart="114.00" departLane="3i_0" departPos="4.10" departSpeed="0.00" departDelay="2.00" arrival="210.00" arrivalLane="2o_0" arrivalPos="492.80" arrivalSpeed="9.06" duration="96.00" routeLength="990.53" waitingTime="0.00" waitingCount="0" stopTime="0.00" timeLoss="13.15" rerouteNo="0" devices="tripinfo_SN_112" vType="car" speedFactor="0.85" vaporized=""/>
    <tripinfo id="NS_117" depart="118.00" departLane="2i_0" departPos="10.10" departSpeed="0.00" departDelay="1.00" arrival="210.00" arrivalLane="1o_0" arrivalPos="492.80" arrivalSpeed="11.68" duration="92.00" routeLength="989.90" waitingTime="2.00" waitingCount="2" stopTime="0.00" timeLoss="25.83" rerouteNo="0" devices="tripinfo_NS_117" vType="truck" speedFactor="1.08" vaporized=""/>
    <tripinfo id="EW_111" depart="111.00" departLane="4i_0" departPos="4.10" departSpeed="0.00" departDelay="0.00" arrival="212.00" arrivalLane="3o_0" arrivalPos="492.80" arrivalSpeed="9.62" duration="101.00" routeLength="995.90" waitingTime="5.00" waitingCount="1" stopTime="0.00" timeLoss="21.69" rerouteNo="0" devices="tripinfo_EW_111" vType="car" speedFactor="0.90" vaporized=""/>
    <tripinfo id="SN_115" depart="117.00" departLane="3i_0" departPos="4.10" departSpeed="0.00" departDelay="2.00" arrival="212.00" arrivalLane="2o_0" arrivalPos="492.80" arrivalSpeed="9.32" duration="95.00" routeLength="990.53" waitingTime="0.00" waitingCount="0" stopTime="0.00" timeLoss="12.67" rerouteNo="0" devices="tripinfo_SN_115" vType="car" speedFactor="0.85" vaporized=""/>
    <tripinfo id="SN_125" depart="125.00" departLane="3i_0" departPos="4.10" departSpeed="0.00" departDelay="0.00" arrival="214.00" arrivalLane="2o_0" arrivalPos="492.80" arrivalSpeed="10.93" duration="89.00" routeLength="990.53" waitingTime="0.00" waitingCount="0" stopTime="0.00" timeLoss="19.77" rerouteNo="0" devices="tripinfo_SN_125" vType="car" speedFactor="1.02" vaporized=""/>
    <tripinfo id="EW_118" depart="118.00" departLane="4i_0" departPos="10.10" departSpeed="0.00" departDelay="0.00" arrival="216.00" arrivalLane="2o_0" arrivalPos="492.80" arrivalSpeed="11.41" duration="98.00" routeLength="989.70" waitingTime="0.00" waitingCount="0" stopTime="0.00" timeLoss="30.44" rerouteNo="0" devices="tripinfo_EW_118" vType="truck" speedFactor="1.05" vaporized=""/>
    <tripinfo id="EW_142" depart="142.00" departLane="4i_0" departPos="4.10" departSpeed="0.00" departDelay="0.00" arrival="219.00" arrivalLane="1o_0" arrivalPos="492.80" arrivalSpeed="11.47" duration="77.00" routeLength="990.53" waitingTime="0.00" waitingCount="0" stopTime="0.00" timeLoss="8.44" rerouteNo="0" devices="tripinfo_EW_142" vType="car" speedFactor="1.04" vaporized=""/>
    <tripinfo id="EW_126" depart="126.00" departLane="4i_0" departPos="4.10" departSpeed="0.00" departDelay="0.00" arrival="220.00" arrivalLane="2o_0" arrivalPos="492.80" arrivalSpeed="10.58" duration="94.00" routeLength="995.70" waitingTime="3.00" waitingCount="1" stopTime="0.00" timeLoss="20.36" rerouteNo="0" devices="tripinfo_EW_126" vType="car" speedFactor="0.97" vaporized=""/>
    <tripinfo id="WE_118" depart="118.00" departLane="1i_0" departPos="4.10" departSpeed="0.00" departDelay="0.00" arrival="221.00" arrivalLane="2o_0" arrivalPos="492.80" arrivalSpeed="11.00" duration="103.00" routeLength="995.90" waitingTime="12.00" waitingCount="1" stopTime="0.00" timeLoss="33.58" rerouteNo="0" devices="tripinfo_WE_118" vType="car" speedFactor="1.02" vaporized=""/>
    <tripinfo id="NS_119" depart="122.00" departLane="2i_0" departPos="4.10" departSpeed="0.00" departDelay="3.00" arrival="221.00" arrivalLane="4o_0" arrivalPos="492.80" arrivalSpeed="10.74" duration="99.00" routeLength="990.53" waitingTime="1.00" waitingCount="1" stopTime="0.00" timeLoss="28.91" rerouteNo="0" devices="tripinfo_NS_119" vType="car" speedFactor="1.00" vaporized=""/>
    <tripinfo id="SN_133" depart="133.00" departLane="3i_0" departPos="4.10" departSpeed="0.00" departDelay="0.00" arrival="225.00" arrivalLane="1o_0" arrivalPos="492.80" arrivalSpeed="10.34" duration="92.00" routeLength="995.70" waitingTime="6.00" waitingCount="1" stopTime="0.00" timeLoss="21.78" rerouteNo="0" devices="tripinfo_SN_133" vType="car" speedFactor="1.02" vaporized=""/>
    <tripinfo id="NS_122" depart="125.00" departLane="2i_0" departPos="4.10" departSpeed="0.00" departDelay="3.00" arrival="228.00" arrivalLane="3o_0" arrivalPos="492.80" arrivalSpeed="10.90" duration="103.00" routeLength="995.70" waitingTime="2.00" waitingCount="2" stopTime="0.00" timeLoss="31.32" rerouteNo="0" devices="tripinfo_NS_122" vType="car" speedFactor="1.00" vaporized=""/>
    <tripinfo id="WE_123" depart="123.00" departLane="1i_0" departPos="4.10" departSpeed="0.00" departDelay="0.00" arrival="234.00" arrivalLane="4o_0" arrivalPos="492.80" arrivalSpeed="8.87" duration="111.00" routeLength="995.70" waitingTime="11.00" waitingCount="2" stopTime="0.00" timeLoss="31.61" rerouteNo="0" devices="tripinfo_WE_123" vType="car" speedFactor="0.90" vaporized=""/>
    <tripinfo id="NS_125" depart="129.00" departLane="2i_0" departPos="4.10" departSpeed="0.00" departDelay="4.00" arrival="235.00" arrivalLane="4o_0" arrivalPos="492.80" arrivalSpeed="11.67" duration="106.00" routeLength="990.53" waitingTime="2.00" waitingCount="2" stopTime="0.00" timeLoss="44.39" rerouteNo="0" devices="tripinfo_NS_125" vType="car" speedFactor="1.14" vaporized=""/>
    <tripinfo id="NS_127" depart="132.00" departLane="2i_0" departPos="4.10" departSpeed="0.00" departDelay="5.00" arrival="237.00" arrivalLane="4o_0" arrivalPos="492.80" arrivalSpeed="11.48" duration="105.00" routeLength="990.53" waitingTime="1.00" waitingCount="1" stopTime="0.00" timeLoss="39.70" rerouteNo="0" devices="tripinfo_NS_127" vType="car" speedFactor="1.08" vaporized=""/>
    <tripinfo id="NS_128" depart="135.00" departLane="2i_0" departPos="4.10" departSpeed="0.00" departDelay="7.00" arrival="239.00" arrivalLane="1o_0" arrivalPos="492.80" arrivalSpeed="12.37" duration="104.00" routeLength="995.90" waitingTime="2.00" waitingCount="2" stopTime="0.00" timeLoss="40.91" rerouteNo="0" devices="tripinfo_NS_128" vType="car" speedFactor="1.12" vaporized=""/>
    <tripinfo id="WE_157" depart="157.00" departLane="1i_0" departPos="4.10" departSpeed="0.00" departDelay="0.00" arrival="239.00" arrivalLane="3o_0" arrivalPos="492.80" arrivalSpeed="9.71" duration="82.00" routeLength="990.53" waitingTime="0.00" waitingCount="0" stopTime="0.00" timeLoss="9.15" rerouteNo="0" devices="tripinfo_WE_157" vType="car" speedFactor="0.97" vaporized=""/>
    <tripinfo id="EW_165" depart="165.00" departLane="4i_0" departPos="4.10" departSpeed="0.00" departDelay="0.00" arrival="245.00" arrivalLane="3o_0" arrivalPos="492.80" arrivalSpeed="10.73" duration="80.00" routeLength="995.90" waitingTime="1.00" waitingCount="1" stopTime="0.00" timeLoss="12.85" rerouteNo="0" devices="tripinfo_EW_165" vType="car" speedFactor="1.06" vaporized=""/>
    <tripinfo id="NS_134" depart="138.00" departLane="2i_0" departPos="4.10" departSpeed="0.00" departDelay="4.00" arrival="250.00" arrivalLane="4o_0" arrivalPos="492.80" arrivalSpeed="10.54" duration="112.00" routeLength="990.53" waitingTime="1.00" waitingCount="1" stopTime="0.00" timeLoss="40.36" rerouteNo="0" devices="tripinfo_NS_134" vType="car" speedFactor="0.99" vaporized=""/>
    <tripinfo id="SN_170" depart="170.00" departLane="3i_0" departPos="4.10" departSpeed="0.00" departDelay="0.00" arrival="251.00" arrivalLane="2o_0" arrivalPos="492.80" arrivalSpeed="10.63" duration="81.00" routeLength="990.53" waitingTime="0.00" waitingCount="0" stopTime="0.00" timeLoss="8.58" rerouteNo="0" devices="tripinfo_SN_170" vType="car" speedFactor="0.98" vaporized=""/>
    <tripinfo id="WE_170" depart="170.00" departLane="1i_0" departPos="4.10" departSpeed="0.00" departDelay="0.00" arrival="255.00" arrivalLane="3o_0" arrivalPos="492.80" arrivalSpeed="10.16" duration="85.00" routeLength="990.53" waitingTime="0.00" waitingCount="0" stopTime="0.00" timeLoss="12.97" rerouteNo="0" devices="tripinfo_WE_170" vType="car" speedFactor="0.98" vaporized=""/>
    <tripinfo id="EW_175" depart="175.00" departLane="4i_0" departPos="4.10" departSpeed="0.00" departDelay="0.00" arrival="256.00" arrivalLane="3o_0" arrivalPos="492.80" arrivalSpeed="11.50" duration="81.00" routeLength="995.90" waitingTime="0.00" waitingCount="0" stopTime="0.00" timeLoss="16.08" rerouteNo="0" devices="tripinfo_EW_175" vType="car" speedFactor="1.09" vaporized=""/>
    <tripinfo id="SN_176" depart="176.00" departLane="3i_0" departPos="4.10" departSpeed="0.00" departDelay="0.00" arrival="256.00" arrivalLane="2o_0" arrivalPos="492.80" arrivalSpeed="10.64" duration="80.00" routeLength="990.53" waitingTime="0.00" waitingCount="0" stopTime="0.00" timeLoss="9.60" rerouteNo="0" devices="tripinfo_SN_176" vType="car" speedFactor="1.00" vaporized=""/>
    <tripinfo id="NS_135" depart="142.00" departLane="2i_0" departPos="4.10" departSpeed="0.00" departDelay="7.00" arrival="257.00" arrivalLane="1o_0" arrivalPos="492.80" arrivalSpeed="9.63" duration="115.00" routeLength="995.90" waitingTime="1.00" waitingCount="1" stopTime="0.00" timeLoss="39.74" rerouteNo="0" devices="tripinfo_NS_135" vType="car" speedFactor="0.94" vaporized=""/>
    <tripinfo id="SN_177" depart="180.00" departLane="3i_0" departPos="4.10" departSpeed="0.00" departDelay="3.00" arrival="258.00" arrivalLane="4o_0" arrivalPos="492.80" arrivalSpeed="10.77" duration="78.00" routeLength="995.90" waitingTime="0.00" waitingCount="0" stopTime="0.00" timeLoss="7.91" rerouteNo="0" devices="tripinfo_SN_177" vType="car" speedFactor="1.02" vaporized=""/>
    <tripinfo id="EW_188" depart="188.00" departLane="4i_0" departPos="4.10" departSpeed="0.00" departDelay="0.00" arrival="259.00" arrivalLane="1o_0" arrivalPos="492.80" arrivalSpeed="11.67" duration="71.00" routeLength="990.53" waitingTime="0.00" waitingCount="0" stopTime="0.00" timeLoss="9.53" rerouteNo="0" devices="tripinfo_EW_188" vType="car" speedFactor="1.15" vaporized=""/>
    <tripinfo id="NS_137" depart="145.00" departLane="2i_0" departPos="4.10" departSpeed="0.00" departDelay="8.00" arrival="267.00" arrivalLane="3o_0" arrivalPos="492.80" arrivalSpeed="8.83" duration="122.00" routeLength="995.70" waitingTime="1.00" waitingCount="1" stopTime="0.00" timeLoss="42.07" rerouteNo="0" devices="tripinfo_NS_137" vType="car" speedFactor="0.88" vaporized=""/>
    <tripinfo id="WE_171" depart="172.00" departLane="1i_0" departPos="4.10" departSpeed="0.00" departDelay="1.00" arrival="269.00" arrivalLane="3o_0" arrivalPos="492.80" arrivalSpeed="10.92" duration="97.00" routeLength="990.53" waitingTime="7.00" waitingCount="1" stopTime="0.00" timeLoss="26.92" rerouteNo="0" devices="tripinfo_WE_171" vType="car" speedFactor="1.01" vaporized=""/>