<?xml version="1.0" encoding="UTF-8"?>

<!-- generated on 2024-05-04 19:31:05 by Eclipse SUMO sumo Version 1.19.0
<configuration xmlns:xsi="http://www.w3.org/2001/XMLSchema-instance" xsi:noNamespaceSchemaLocation="http://sumo.dlr.de/xsd/sumoConfiguration.xsd">

    <input>
        <net-file value="test5.net.xml"/>
        <route-files value="route_gen.rou.xml"/>
    </input>

    <output>
        <tripinfo-output value="tripinfo_epi591.xml"/>
    </output>

    <report>
        <no-warnings value="true"/>
    </report>

    <traci_server>
        <remote-port value="47459"/>
    </traci_server>

</configuration>
-->

<tripinfos xmlns:xsi="http://www.w3.org/2001/XMLSchema-instance" xsi:noNamespaceSchemaLocation="http://sumo.dlr.de/xsd/tripinfo_file.xsd">
    <tripinfo id="EW_0" depart="0.00" departLane="4i_0" departPos="4.10" departSpeed="0.00" departDelay="0.00" arrival="76.00" arrivalLane="1o_0" arrivalPos="492.80" arrivalSpeed="11.59" duration="76.00" routeLength="990.53" waitingTime="0.00" waitingCount="0" stopTime="0.00" timeLoss="8.76" rerouteNo="0" devices="tripinfo_EW_0" vType="car" speedFactor="1.06" vaporized=""/>
    <tripinfo id="WE_2" depart="2.00" departLane="1i_0" departPos="4.10" departSpeed="0.00" departDelay="0.00" arrival="80.00" arrivalLane="2o_0" arrivalPos="492.80" arrivalSpeed="11.15" duration="78.00" routeLength="995.90" waitingTime="0.00" waitingCount="0" stopTime="0.00" timeLoss="7.21" rerouteNo="0" devices="tripinfo_WE_2" vType="car" speedFactor="1.01" vaporized=""/>
    <tripinfo id="EW_1" depart="3.00" departLane="4i_0" departPos="4.10" departSpeed="0.00" departDelay="2.00" arrival="87.00" arrivalLane="1o_0" arrivalPos="492.80" arrivalSpeed="9.59" duration="84.00" routeLength="990.53" waitingTime="0.00" waitingCount="0" stopTime="0.00" timeLoss="8.33" rerouteNo="0" devices="tripinfo_EW_1" vType="car" speedFactor="0.94" vaporized=""/>
    <tripinfo id="EW_3" depart="6.00" departLane="4i_0" departPos="4.10" departSpeed="0.00" departDelay="3.00" arrival="88.00" arrivalLane="1o_0" arrivalPos="492.80" arrivalSpeed="10.82" duration="82.00" routeLength="990.53" waitingTime="0.00" waitingCount="0" stopTime="0.00" timeLoss="16.92" rerouteNo="0" devices="tripinfo_EW_3" vType="car" speedFactor="1.08" vaporized=""/>
    <tripinfo id="NS_3" depart="3.00" departLane="2i_0" departPos="4.10" departSpeed="0.00" departDelay="0.00" arrival="90.00" arrivalLane="4o_0" arrivalPos="492.80" arrivalSpeed="10.40" duration="87.00" routeLength="990.53" waitingTime="8.00" waitingCount="1" stopTime="0.00" timeLoss="18.04" rerouteNo="0" devices="tripinfo_NS_3" vType="car" speedFactor="1.03" vaporized=""/>
    <tripinfo id="NS_16" depart="16.00" departLane="2i_0" departPos="4.10" departSpeed="0.00" departDelay="0.00" arrival="90.00" arrivalLane="1o_0" arrivalPos="492.80" arrivalSpeed="12.05" duration="74.00" routeLength="995.90" waitingTime="0.00" waitingCount="0" stopTime="0.00" timeLoss="10.63" rerouteNo="0" devices="tripinfo_NS_16" vType="car" speedFactor="1.12" vaporized=""/>
    <tripinfo id="WE_6" depart="7.00" departLane="1i_0" departPos="4.10" departSpeed="0.00" departDelay="1.00" arrival="93.00" arrivalLane="3o_0" arrivalPos="492.80" arrivalSpeed="10.92" duration="86.00" routeLength="990.53" waitingTime="0.00" waitingCount="0" stopTime="0.00" timeLoss="18.74" rerouteNo="0" devices="tripinfo_WE_6" vType="car" speedFactor="1.05" vaporized=""/>
    <tripinfo id="WE_4" depart="5.00" departLane="1i_0" departPos="4.10" departSpeed="0.00" departDelay="1.00" arrival="100.00" arrivalLane="2o_0" arrivalPos="492.80" arrivalSpeed="8.97" duration="95.00" routeLength="995.90" waitingTime="0.00" waitingCount="0" stopTime="0.00" timeLoss="10.05" rerouteNo="0" devices="tripinfo_WE_4" vType="car" speedFactor="0.83" vaporized=""/>
    <tripinfo id="SN_14" depart="14.00" departLane="3i_0" departPos="4.10" departSpeed="0.00" departDelay="0.00" arrival="102.00" arrivalLane="2o_0" arrivalPos="492.80" arrivalSpeed="11.03" duration="88.00" routeLength="990.53" waitingTime="0.00" waitingCount="0" stopTime="0.00" timeLoss="20.25" rerouteNo="0" devices="tripinfo_SN_14" vType="car" speedFactor="1.05" vaporized=""/>
    <tripinfo id="EW_9" depart="9.00" departLane="4i_0" departPos="4.10" departSpeed="0.00" departDelay="0.00" arrival="104.00" arrivalLane="2o_0" arrivalPos="492.80" arrivalSpeed="10.13" duration="95.00" routeLength="995.70" waitingTime="2.00" waitingCount="1" stopTime="0.00" timeLoss="19.25" rerouteNo="0" devices="tripinfo_EW_9" vType="car" speedFactor="0.94" vaporized=""/>
    <tripinfo id="WE_8" depart="10.00" departLane="1i_0" departPos="4.10" departSpeed="0.00" departDelay="2.00" arrival="105.00" arrivalLane="3o_0" arrivalPos="492.80" arrivalSpeed="9.64" duration="95.00" routeLength="990.53" waitingTime="0.00" waitingCount="0" stopTime="0.00" timeLoss="15.72" rerouteNo="0" devices="tripinfo_WE_8" vType="car" speedFactor="0.89" vaporized=""/>
    <tripinfo id="WE_11" depart="13.00" departLane="1i_0" departPos="4.10" departSpeed="0.00" departDelay="2.00" arrival="107.00" arrivalLane="3o_0" arrivalPos="492.80" arrivalSpeed="11.22" duration="94.00" routeLength="990.53" waitingTime="0.00" waitingCount="0" stopTime="0.00" timeLoss="29.27" rerouteNo="0" devices="tripinfo_WE_11" vType="car" speedFactor="1.09" vaporized=""/>
    <tripinfo id="EW_10" depart="11.00" departLane="4i_0" departPos="4.10" departSpeed="0.00" departDelay="1.00" arrival="109.00" arrivalLane="2o_0" arrivalPos="492.80" arrivalSpeed="8.67" duration="98.00" routeLength="995.70" waitingTime="0.00" waitingCount="0" stopTime="0.00" timeLoss="15.35" rerouteNo="0" devices="tripinfo_EW_10" vType="car" speedFactor="0.86" vaporized=""/>
    <tripinfo id="EW_11" depart="14.00" departLane="4i_0" departPos="4.10" departSpeed="0.00" departDelay="3.00" arrival="111.00" arrivalLane="2o_0" arrivalPos="492.80" arrivalSpeed="11.01" duration="97.00" routeLength="995.70" waitingTime="0.00" waitingCount="0" stopTime="0.00" timeLoss="27.53" rerouteNo="0" devices="tripinfo_EW_11" vType="car" speedFactor="1.03" vaporized=""/>
    <tripinfo id="WE_18" depart="18.00" departLane="1i_0" departPos="4.10" departSpeed="0.00" departDelay="0.00" arrival="113.00" arrivalLane="2o_0" arrivalPos="492.80" arrivalSpeed="9.91" duration="95.00" routeLength="995.90" waitingTime="0.00" waitingCount="0" stopTime="0.00" timeLoss="22.94" rerouteNo="0" devices="tripinfo_WE_18" vType="car" speedFactor="0.99" vaporized=""/>
    <tripinfo id="NS_24" depart="24.00" departLane="2i_0" departPos="4.10" departSpeed="0.00" departDelay="0.00" arrival="113.00" arrivalLane="3o_0" arrivalPos="492.80" arrivalSpeed="10.30" duration="89.00" routeLength="995.70" waitingTime="2.00" waitingCount="1" stopTime="0.00" timeLoss="13.89" rerouteNo="0" devices="tripinfo_NS_24" vType="car" speedFactor="0.94" vaporized=""/>
    <tripinfo id="EW_22" depart="22.00" departLane="4i_0" departPos="4.10" departSpeed="0.00" departDelay="0.00" arrival="115.00" arrivalLane="2o_0" arrivalPos="492.80" arrivalSpeed="9.04" duration="93.00" routeLength="995.70" waitingTime="0.00" waitingCount="0" stopTime="0.00" timeLoss="12.09" rerouteNo="0" devices="tripinfo_EW_22" vType="car" speedFactor="0.88" vaporized=""/>
    <tripinfo id="WE_21" depart="21.00" departLane="1i_0" departPos="4.10" departSpeed="0.00" departDelay="0.00" arrival="116.00" arrivalLane="4o_0" arrivalPos="492.80" arrivalSpeed="9.39" duration="95.00" routeLength="995.70" waitingTime="0.00" waitingCount="0" stopTime="0.00" timeLoss="18.53" rerouteNo="0" devices="tripinfo_WE_21" vType="car" speedFactor="0.93" vaporized=""/>
    <tripinfo id="WE_26" depart="26.00" departLane="1i_0" departPos="4.10" departSpeed="0.00" departDelay="0.00" arrival="118.00" arrivalLane="3o_0" arrivalPos="492.80" arrivalSpeed="10.29" duration="92.00" routeLength="990.53" waitingTime="0.00" waitingCount="0" stopTime="0.00" timeLoss="16.58" rerouteNo="0" devices="tripinfo_WE_26" vType="car" speedFactor="0.94" vaporized=""/>
    <tripinfo id="WE_28" depart="29.00" departLane="1i_0" departPos="4.10" departSpeed="0.00" departDelay="1.00" arrival="120.00" arrivalLane="3o_0" arrivalPos="492.80" arrivalSpeed="12.21" duration="91.00" routeLength="990.53" waitingTime="0.00" waitingCount="0" stopTime="0.00" timeLoss="29.56" rerouteNo="0" devices="tripinfo_WE_28" vType="car" speedFactor="1.16" vaporized=""/>
    <tripinfo id="SN_39" depart="39.00" departLane="3i_0" departPos="4.10" departSpeed="0.00" departDelay="0.00" arrival="122.00" arrivalLane="1o_0" arrivalPos="492.80" arrivalSpeed="11.20" duration="83.00" routeLength="995.70" waitingTime="0.00" waitingCount="0" stopTime="0.00" timeLoss="12.87" rerouteNo="0" devices="tripinfo_SN_39" vType="car" speedFactor="1.02" vaporized=""/>
    <tripinfo id="WE_41" depart="41.00" departLane="1i_0" departPos="4.10" departSpeed="0.00" departDelay="0.00" arrival="126.00" arrivalLane="4o_0" arrivalPos="492.80" arrivalSpeed="10.07" duration="85.00" routeLength="995.70" waitingTime="0.00" waitingCount="0" stopTime="0.00" timeLoss="12.49" rerouteNo="0" devices="tripinfo_WE_41" vType="car" speedFactor="0.97" vaporized=""/>
    <tripinfo id="EW_40" depart="40.00" departLane="4i_0" departPos="4.10" departSpeed="0.00" departDelay="0.00" arrival="128.00" arrivalLane="2o_0" arrivalPos="492.80" arrivalSpeed="10.70" duration="88.00" routeLength="995.70" waitingTime="4.00" waitingCount="2" stopTime="0.00" timeLoss="18.08" rerouteNo="0" devices="tripinfo_EW_40" vType="car" speedFactor="1.01" vaporized=""/>
    <tripinfo id="NS_45" depart="45.00" departLane="2i_0" departPos="4.10" departSpeed="0.00" departDelay="0.00" arrival="140.00" arrivalLane="3o_0" arrivalPos="492.80" arrivalSpeed="9.82" duration="95.00" routeLength="995.70" waitingTime="1.00" waitingCount="1" stopTime="0.00" timeLoss="14.80" rerouteNo="0" devices="tripinfo_NS_45" vType="car" speedFactor="0.89" vaporized=""/>
    <tripinfo id="WE_47" depart="47.00" departLane="1i_0" departPos="4.10" departSpeed="0.00" departDelay="0.00" arrival="145.00" arrivalLane="4o_0" arrivalPos="492.80" arrivalSpeed="8.76" duration="98.00" routeLength="995.70" waitingTime="0.00" waitingCount="0" stopTime="0.00" timeLoss="11.95" rerouteNo="0" devices="tripinfo_WE_47" vType="car" speedFactor="0.83" vaporized=""/>
    <tripinfo id="WE_48" depart="50.00" departLane="1i_0" departPos="4.10" departSpeed="0.00" departDelay="2.00" arrival="146.00" arrivalLane="3o_0" arrivalPos="492.80" arrivalSpeed="9.42" duration="96.00" routeLength="990.53" waitingTime="0.00" waitingCount="0" stopTime="0.00" timeLoss="15.38" rerouteNo="0" devices="tripinfo_WE_48" vType="car" speedFactor="0.87" vaporized=""/>
    <tripinfo id="NS_54" depart="54.00" departLane="2i_0" departPos="10.10" departSpeed="0.00" departDelay="0.00" arrival="147.00" arrivalLane="4o_0" arrivalPos="492.80" arrivalSpeed="10.26" duration="93.00" routeLength="984.53" waitingTime="0.00" waitingCount="0" stopTime="0.00" timeLoss="26.51" rerouteNo="0" devices="tripinfo_NS_54" vType="truck" speedFactor="1.07" vaporized=""/>
    <tripinfo id="NS_67" depart="67.00" departLane="2i_0" departPos="4.10" departSpeed="0.00" departDelay="0.00" arrival="148.00" arrivalLane="3o_0" arrivalPos="492.80" arrivalSpeed="12.36" duration="81.00" routeLength="995.70" waitingTime="3.00" waitingCount="1" stopTime="0.00" timeLoss="20.53" rerouteNo="0" devices="tripinfo_NS_67" vType="car" speedFactor="1.18" vaporized=""/>
    <tripinfo id="WE_49" depart="53.00" departLane="1i_0" departPos="4.10" departSpeed="0.00" departDelay="4.00" arrival="149.00" arrivalLane="2o_0" arrivalPos="492.80" arrivalSpeed="9.57" duration="96.00" routeLength="995.90" waitingTime="1.00" waitingCount="1" stopTime="0.00" timeLoss="18.67" rerouteNo="0" devices="tripinfo_WE_49" vType="car" speedFactor="0.92" vaporized=""/>
    <tripinfo id="NS_62" depart="62.00" departLane="2i_0" departPos="4.10" departSpeed="0.00" departDelay="0.00" arrival="150.00" arrivalLane="4o_0" arrivalPos="492.80" arrivalSpeed="10.21" duration="88.00" routeLength="990.53" waitingTime="0.00" waitingCount="0" stopTime="0.00" timeLoss="12.07" rerouteNo="0" devices="tripinfo_NS_62" vType="car" speedFactor="0.93" vaporized=""/>
    <tripinfo id="WE_68" depart="68.00" departLane="1i_0" departPos="4.10" departSpeed="0.00" departDelay="0.00" arrival="150.00" arrivalLane="3o_0" arrivalPos="492.80" arrivalSpeed="12.39" duration="82.00" routeLength="990.53" waitingTime="3.00" waitingCount="2" stopTime="0.00" timeLoss="20.40" rerouteNo="0" devices="tripinfo_WE_68" vType="car" speedFactor="1.15" vaporized=""/>
    <tripinfo id="WE_52" depart="56.00" departLane="1i_0" departPos="4.10" departSpeed="0.00" departDelay="4.00" arrival="154.00" arrivalLane="4o_0" arrivalPos="492.80" arrivalSpeed="9.34" duration="98.00" routeLength="995.70" waitingTime="3.00" waitingCount="1" stopTime="0.00" timeLoss="23.29" rerouteNo="0" devices="tripinfo_WE_52" vType="car" speedFactor="0.95" vaporized=""/>
    <tripinfo id="EW_69" depart="69.00" departLane="4i_0" departPos="4.10" departSpeed="0.00" departDelay="0.00" arrival="156.00" arrivalLane="2o_0" arrivalPos="492.80" arrivalSpeed="10.28" duration="87.00" routeLength="995.70" waitingTime="3.00" waitingCount="2" stopTime="0.00" timeLoss="16.17" rerouteNo="0" devices="tripinfo_EW_69" vType="car" speedFactor="1.01" vaporized=""/>
    <tripinfo id="EW_73" depart="73.00" departLane="4i_0" departPos="4.10" departSpeed="0.00" departDelay="0.00" arrival="158.00" arrivalLane="2o_0" arrivalPos="492.80" arrivalSpeed="12.58" duration="85.00" routeLength="995.70" waitingTime="2.00" waitingCount="1" stopTime="0.00" timeLoss="23.95" rerouteNo="0" devices="tripinfo_EW_73" vType="car" speedFactor="1.17" vaporized=""/>
    <tripinfo id="SN_82" depart="82.00" departLane="3i_0" departPos="4.10" departSpeed="0.00" departDelay="0.00" arrival="160.00" arrivalLane="4o_0" arrivalPos="492.80" arrivalSpeed="10.77" duration="78.00" routeLength="995.90" waitingTime="0.00" waitingCount="0" stopTime="0.00" timeLoss="8.72" rerouteNo="0" devices="tripinfo_SN_82" vType="car" speedFactor="1.02" vaporized=""/>
    <tripinfo id="EW_83" depart="83.00" departLane="4i_0" departPos="4.10" departSpeed="0.00" departDelay="0.00" arrival="164.00" arrivalLane="3o_0" arrivalPos="492.80" arrivalSpeed="10.12" duration="81.00" routeLength="995.90" waitingTime="0.00" waitingCount="0" stopTime="0.00" timeLoss="8.46" rerouteNo="0" devices="tripinfo_EW_83" vType="car" speedFactor="0.97" vaporized=""/>
    <tripinfo id="NS_82" depart="82.00" departLane="2i_0" departPos="4.10" departSpeed="0.00" departDelay="0.00" arrival="166.00" arrivalLane="4o_0" arrivalPos="492.80" arrivalSpeed="10.46" duration="84.00" routeLength="990.53" waitingTime="3.00" waitingCount="1" stopTime="0.00" timeLoss="12.90" rerouteNo="0" devices="tripinfo_NS_82" vType="car" speedFactor="0.99" vaporized=""/>
    <tripinfo id="EW_101" depart="101.00" departLane="4i_0" departPos="4.10" departSpeed="0.00" departDelay="0.00" arrival="177.00" arrivalLane="1o_0" arrivalPos="492.80" arrivalSpeed="11.62" duration="76.00" routeLength="990.53" waitingTime="1.00" waitingCount="1" stopTime="0.00" timeLoss="11.80" rerouteNo="0" devices="tripinfo_EW_101" vType="car" speedFactor="1.10" vaporized=""/>
    <tripinfo id="SN_94" depart="94.00" departLane="3i_0" departPos="10.10" departSpeed="0.00" departDelay="0.00" arrival="181.00" arrivalLane="4o_0" arrivalPos="492.80" arrivalSpeed="12.00" duration="87.00" routeLength="989.90" waitingTime="1.00" waitingCount="1" stopTime="0.00" timeLoss="20.86" rerouteNo="0" devices="tripinfo_SN_94" vType="truck" speedFactor="1.09" vaporized=""/>
    <tripinfo id="WE_104" depart="104.00" departLane="1i_0" departPos="4.10" departSpeed="0.00" departDelay="0.00" arrival="190.00" arrivalLane="4o_0" arrivalPos="492.80" arrivalSpeed="10.17" duration="86.00" routeLength="995.70" waitingTime="2.00" waitingCount="1" stopTime="0.00" timeLoss="16.67" rerouteNo="0" devices="tripinfo_WE_104" vType="car" speedFactor="1.03" vaporized=""/>
    <tripinfo id="EW_107" depart="107.00" departLane="4i_0" departPos="4.10" departSpeed="0.00" departDelay="0.00" arrival="190.00" arrivalLane="3o_0" arrivalPos="492.80" arrivalSpeed="11.13" duration="83.00" routeLength="995.90" waitingTime="5.00" waitingCount="2" stopTime="0.00" timeLoss="17.48" rerouteNo="0" devices="tripinfo_EW_107" vType="car" speedFactor="1.09" vaporized=""/>
    <tripinfo id="SN_102" depart="102.00" departLane="3i_0" departPos="4.10" departSpeed="0.00" departDelay="0.00" arrival="192.00" arrivalLane="2o_0" arrivalPos="492.80" arrivalSpeed="9.07" duration="90.00" routeLength="990.53" waitingTime="0.00" waitingCount="0" stopTime="0.00" timeLoss="11.56" rerouteNo="0" devices="tripinfo_SN_102" vType="car" speedFactor="0.90" vaporized=""/>
    <tripinfo id="WE_106" depart="107.00" departLane="1i_0" departPos="4.10" departSpeed="0.00" departDelay="1.00" arrival="199.00" arrivalLane="2o_0" arrivalPos="492.80" arrivalSpeed="10.46" duration="92.00" routeLength="995.90" waitingTime="1.00" waitingCount="1" stopTime="0.00" timeLoss="18.22" rerouteNo="0" devices="tripinfo_WE_106" vType="car" speedFactor="0.96" vaporized=""/>
    <tripinfo id="WE_109" depart="110.00" departLane="1i_0" departPos="4.10" departSpeed="0.00" departDelay="1.00" arrival="200.00" arrivalLane="4o_0" arrivalPos="492.80" arrivalSpeed="10.38" duration="90.00" routeLength="995.70" waitingTime="3.00" waitingCount="2" stopTime="0.00" timeLoss="22.04" rerouteNo="0" devices="tripinfo_WE_109" vType="car" speedFactor="1.04" vaporized=""/>
    <tripinfo id="EW_112" depart="112.00" departLane="4i_0" departPos="4.10" departSpeed="0.00" departDelay="0.00" arrival="201.00" arrivalLane="2o_0" arrivalPos="492.80" arrivalSpeed="10.58" duration="89.00" routeLength="995.70" waitingTime="0.00" waitingCount="0" stopTime="0.00" timeLoss="21.03" rerouteNo="0" devices="tripinfo_EW_112" vType="car" speedFactor="1.04" vaporized=""/>
    <tripinfo id="WE_122" depart="122.00" departLane="1i_0" departPos="4.10" departSpeed="0.00" departDelay="0.00" arrival="203.00" arrivalLane="4o_0" arrivalPos="492.80" arrivalSpeed="11.27" duration="81.00" routeLength="995.70" waitingTime="0.00" waitingCount="0" stopTime="0.00" timeLoss="15.55" rerouteNo="0" devices="tripinfo_WE_122" vType="car" speedFactor="1.09" vaporized=""/>
    <tripinfo id="NS_126" depart="126.00" departLane="2i_0" departPos="4.10" departSpeed="0.00" departDelay="0.00" arrival="215.00" arrivalLane="4o_0" arrivalPos="492.80" arrivalSpeed="9.10" duration="89.00" routeLength="990.53" waitingTime="0.00" waitingCount="0" stopTime="0.00" timeLoss="10.31" rerouteNo="0" devices="tripinfo_NS_126" vType="car" speedFactor="0.90" vaporized=""/>
    <tripinfo id="WE_126" depart="126.00" departLane="1i_0" departPos="10.10" departSpeed="0.00" departDelay="0.00" arrival="218.00" arrivalLane="3o_0" arrivalPos="492.80" arrivalSpeed="11.02" duration="92.00" routeLength="984.53" waitingTime="1.00" waitingCount="1" stopTime="0.00" timeLoss="21.33" rerouteNo="0" devices="tripinfo_WE_126" vType="truck" speedFactor="1.00" vaporized=""/>
    <tripinfo id="SN_134" depart="134.00" departLane="3i_0" departPos="4.10" departSpeed="0.00" departDelay="0.00" arrival="225.00" arrivalLane="1o_0" arrivalPos="492.80" arrivalSpeed="8.86" duration="91.00" routeLength="995.70" waitingTime="0.00" waitingCount="0" stopTime="0.00" timeLoss="9.91" rerouteNo="0" devices="tripinfo_SN_134" vType="car" speedFactor="0.88" vaporized=""/>
    <tripinfo id="NS_142" depart="142.00" departLane="2i_0" departPos="10.10" departSpeed="0.00" departDelay="0.00" arrival="228.00" arrivalLane="1o_0" arrivalPos="492.80" arrivalSpeed="11.95" duration="86.00" routeLength="989.90" waitingTime="1.00" waitingCount="1" stopTime="0.00" timeLoss="19.19" rerouteNo="0" devices="tripinfo_NS_142" vType="truck" speedFactor="1.08" vaporized=""/>
    <tripinfo id="EW_161" depart="161.00" departLane="4i_0" departPos="4.10" departSpeed="0.00" departDelay="0.00" arrival="232.00" arrivalLane="1o_0" arrivalPos="492.80" arrivalSpeed="11.88" duration="71.00" routeLength="990.53" waitingTime="0.00" waitingCount="0" stopTime="0.00" timeLoss="8.69" rerouteNo="0" devices="tripinfo_EW_161" vType="car" speedFactor="1.14" vaporized=""/>
    <tripinfo id="WE_141" depart="141.00" departLane="1i_0" departPos="4.10" departSpeed="0.00" departDelay="0.00" arrival="234.00" arrivalLane="2o_0" arrivalPos="492.80" arrivalSpeed="9.33" duration="93.00" routeLength="995.90" waitingTime="0.00" waitingCount="0" stopTime="0.00" timeLoss="9.18" rerouteNo="0" devices="tripinfo_WE_141" vType="car" speedFactor="0.85" vaporized=""/>
    <tripinfo id="WE_145" depart="145.00" departLane="1i_0" departPos="4.10" departSpeed="0.00" departDelay="0.00" arrival="235.00" arrivalLane="4o_0" arrivalPos="492.80" arrivalSpeed="10.50" duration="90.00" routeLength="995.70" waitingTime="5.00" waitingCount="1" stopTime="0.00" timeLoss="20.05" rerouteNo="0" devices="tripinfo_WE_145" vType="car" speedFactor="1.02" vaporized=""/>
    <tripinfo id="EW_142" depart="142.00" departLane="4i_0" departPos="4.10" departSpeed="0.00" departDelay="0.00" arrival="236.00" arrivalLane="2o_0" arrivalPos="492.80" arrivalSpeed="8.21" duration="94.00" routeLength="995.70" waitingTime="0.00" waitingCount="0" stopTime="0.00" timeLoss="10.70" rerouteNo="0" devices="tripinfo_EW_142" vType="car" speedFactor="0.85" vaporized=""/>
    <tripinfo id="SN_145" depart="146.00" departLane="3i_0" departPos="10.10" departSpeed="0.00" departDelay="1.00" arrival="240.00" arrivalLane="4o_0" arrivalPos="492.80" arrivalSpeed="11.29" duration="94.00" routeLength="989.90" waitingTime="4.00" waitingCount="1" stopTime="0.00" timeLoss="25.67" rerouteNo="0" devices="tripinfo_SN_145" vType="truck" speedFactor="1.05" vaporized=""/>
    <tripinfo id="SN_168" depart="168.00" departLane="3i_0" departPos="4.10" departSpeed="0.00" departDelay="0.00" arrival="249.00" arrivalLane="2o_0" arrivalPos="492.80" arrivalSpeed="9.63" duration="81.00" routeLength="990.53" waitingTime="0.00" waitingCount="0" stopTime="0.00" timeLoss="8.60" rerouteNo="0" devices="tripinfo_SN_168" vType="car" speedFactor="0.97" vaporized=""/>
    <tripinfo id="SN_159" depart="159.00" departLane="3i_0" departPos="4.10" departSpeed="0.00" departDelay="0.00" arrival="250.00" arrivalLane="4o_0" arrivalPos="492.80" arrivalSpeed="8.82" duration="91.00" routeLength="995.90" waitingTime="0.00" waitingCount="0" stopTime="0.00" timeLoss="12.29" rerouteNo="0" devices="tripinfo_SN_159" vType="car" speedFactor="0.90" vaporized=""/>
    <tripinfo id="EW_169" depart="169.00" departLane="4i_0" departPos="4.10" departSpeed="0.00" departDelay="0.00" arrival="251.00" arrivalLane="2o_0" arrivalPos="492.80" arrivalSpeed="10.79" duration="82.00" routeLength="995.70" waitingTime="0.00" waitingCount="0" stopTime="0.00" timeLoss="16.44" rerouteNo="0" devices="tripinfo_EW_169" vType="car" speedFactor="1.08" vaporized=""/>
    <tripinfo id="WE_165" depart="165.00" departLane="1i_0" departPos="4.10" departSpeed="0.00" departDelay="0.00" arrival="258.00" arrivalLane="3o_0" arrivalPos="492.80" arrivalSpeed="11.01" duration="93.00" routeLength="990.53" waitingTime="12.00" waitingCount="1" stopTime="0.00" timeLoss="24.22" rerouteNo="0" devices="tripinfo_WE_165" vType="car" speedFactor="1.02" vaporized=""/>
    <tripinfo id="NS_155" depart="158.00" departLane="2i_0" departPos="4.10" departSpeed="0.00" departDelay="3.00" arrival="260.00" arrivalLane="4o_0" arrivalPos="492.80" arrivalSpeed="10.17" duration="102.00" routeLength="990.53" waitingTime="20.00" waitingCount="1" stopTime="0.00" timeLoss="31.29" rerouteNo="0" devices="tripinfo_NS_155" vType="car" speedFactor="1.00" vaporized=""/>
    <tripinfo id="EW_181" depart="181.00" departLane="4i_0" departPos="4.10" departSpeed="0.00" departDelay="0.00" arrival="261.00" arrivalLane="2o_0" arrivalPos="492.80" arrivalSpeed="10.88" duration="80.00" routeLength="995.70" waitingTime="0.00" waitingCount="0" stopTime="0.00" timeLoss="10.30" rerouteNo="0" devices="tripinfo_EW_181" vType="car" speedFactor="1.02" vaporized=""/>
    <tripinfo id="NS_170" depart="170.00" departLane="2i_0" departPos="4.10" departSpeed="0.00" departDelay="0.00" arrival="265.00" arrivalLane="3o_0" arrivalPos="492.80" arrivalSpeed="11.48" duration="95.00" routeLength="995.70" waitingTime="11.00" waitingCount="2" stopTime="0.00" timeLoss="31.25" rerouteNo="0" devices="tripinfo_NS_170" vType="car" speedFactor="1.12" vaporized=""/>
    <tripinfo id="NS_157" depart="161.00" departLane="2i_0" departPos="4.10" departSpeed="0.00" departDelay="4.00" arrival="268.00" arrivalLane="4o_0" arrivalPos="492.80" arrivalSpeed="10.49" duration="107.00" routeLength="990.53" waitingTime="20.00" waitingCount="2" stopTime="0.00" timeLoss="36.56" rerouteNo="0" devices="tripinfo_NS_157" vType="car" speedFactor="1.00" vaporized=""/>
    <tripinfo id="WE_184" depart="184.00" departLane="1i_0" departPos="4.10" departSpeed="0.00" departDelay="0.00" arrival="268.00" arrivalLane="2o_0" arrivalPos="492.80" arrivalSpeed="10.95" duration="84.00" routeLength="995.90" waitingTime="0.00" waitingCount="0" stopTime="0.00" timeLoss="11.86" rerouteNo="0" devices="tripinfo_WE_184" vType="car" speedFactor="0.99" vaporized=""/>
    <tripinfo id="WE_189" depart="189.00" departLane="1i_0" departPos="4.10" departSpeed="0.00" departDelay="0.00" arrival="279.00" arrivalLane="4o_0" arrivalPos="492.80" arrivalSpeed="9.85" duration="90.00" routeLength="995.70" waitingTime="2.00" waitingCount="1" stopTime="0.00" timeLoss="13.95" rerouteNo="0" devices="tripinfo_WE_189" vType="car" speedFactor="0.94" vaporized=""/>
    <tripinfo id="EW_192" depart="192.00" departLane="4i_0" departPos="10.10" departSpeed="0.00" departDelay="0.00" arrival="290.00" arrivalLane="3o_0" arrivalPos="492.80" arrivalSpeed="10.32" duration="98.00" routeLength="989.90" waitingTime="4.00" waitingCount="1" stopTime="0.00" timeLoss="22.58" rerouteNo="0" devices="tripinfo_EW_192" vType="truck" speedFactor="0.94" vaporized=""/>
    <tripinfo id="EW_208" depart="208.00" departLane="4i_0" departPos="4.10" departSpeed="0.00" departDelay="0.00" arrival="291.00" arrivalLane="2o_0" arrivalPos="492.80" arrivalSpeed="10.13" duration="83.00" routeLength="995.70" waitingTime="0.00" waitingCount="0" stopTime="0.00" timeLoss="13.84" rerouteNo="0" devices="tripinfo_EW_208" vType="car" speedFactor="1.02" vaporized=""/>
    <tripinfo id="SN_205" depart="205.00" departLane="3i_0" departPos="4.10" departSpeed="0.00" departDelay="0.00" arrival="292.00" arrivalLane="1o_0" arrivalPos="492.80" arrivalSpeed="11.35" duration="87.00" routeLength="995.70" waitingTime="4.00" waitingCount="1" stopTime="0.00" timeLoss="18.29" rerouteNo="0" devices="tripinfo_SN_205" vType="car" speedFactor="1.04" vaporized=""/>
    <tripinfo id="NS_211" depart="211.00" departLane="2i_0" departPos="4.10" departSpeed="0.00" departDelay="0.00" arrival="300.00" arrivalLane="3o_0" arrivalPos="492.80" arrivalSpeed="9.79" duration="89.00" routeLength="995.70" waitingTime="4.00" waitingCount="1" stopTime="0.00" timeLoss="16.08" rerouteNo="0" devices="tripinfo_NS_211" vType="car" speedFactor="0.97" vaporized=""/>
    <tripinfo id="WE_204" depart="204.00" departLane="1i_0" departPos="4.10" departSpeed="0.00" departDelay="0.00" arrival="304.00" arrivalLane="4o_0" arrivalPos="492.80" arrivalSpeed="8.95" duration="100.00" routeLength="995.70" waitingTime="7.00" waitingCount="1" stopTime="0.00" timeLoss="22.04" rerouteNo="0" devices="tripinfo_WE_204" vType="car" speedFactor="0.91" vaporized=""/>
    <tripinfo id="EW_214" depart="215.00" departLane="4i_0" departPos="4.10" departSpeed="0.00" departDelay="1.00" arrival="305.00" arrivalLane="2o_0" arrivalPos="492.80" arrivalSpeed="9.58" duration="90.00" routeLength="995.70" waitingTime="0.00" waitingCount="0" stopTime="0.00" timeLoss="14.11" rerouteNo="0" devices="tripinfo_EW_214" vType="car" speedFactor="0.94" vaporized=""/>
    <tripinfo id="SN_206" depart="208.00" departLane="3i_0" departPos="4.10" departSpeed="0.00" departDelay="2.00" arrival="306.00" arrivalLane="4o_0" arrivalPos="492.80" arrivalSpeed="10.77" duration="98.00" routeLength="995.90" waitingTime="7.00" waitingCount="3" stopTime="0.00" timeLoss="28.48" rerouteNo="0" devices="tripinfo_SN_206" vType="car" speedFactor="1.02" vaporized=""/>
    <tripinfo id="WE_205" depart="207.00" departLane="1i_0" departPos="4.10" departSpeed="0.00" departDelay="2.00" arrival="312.00" arrivalLane="2o_0" arrivalPos="492.80" arrivalSpeed="10.06" duration="105.00" routeLength="995.90" waitingTime="9.00" waitingCount="2" stopTime="0.00" timeLoss="27.00" rerouteNo="0" devices="tripinfo_WE_205" vType="car" speedFactor="0.91" vaporized=""/>
    <tripinfo id="SN_217" depart="218.00" departLane="3i_0" departPos="4.10" departSpeed="0.00" departDelay="1.00" arrival="312.00" arrivalLane="1o_0" arrivalPos="492.80" arrivalSpeed="10.44" duration="94.00" routeLength="995.70" waitingTime="5.00" waitingCount="2" stopTime="0.00" timeLoss="27.05" rerouteNo="0" devices="tripinfo_SN_217" vType="car" speedFactor="1.06" vaporized=""/>
    <tripinfo id="NS_222" depart="222.00" departLane="2i_0" departPos="4.10" departSpeed="0.00" departDelay="0.00" arrival="313.00" arrivalLane="3o_0" arrivalPos="492.80" arrivalSpeed="10.03" duration="91.00" routeLength="995.70" waitingTime="3.00" waitingCount="1" stopTime="0.00" timeLoss="16.77" rerouteNo="0" devices="tripinfo_NS_222" vType="car" speedFactor="0.96" vaporized=""/>
    <tripinfo id="EW_232" depart="232.00" departLane="4i_0" departPos="4.10" departSpeed="0.00" departDelay="0.00" arrival="319.00" arrivalLane="3o_0" arrivalPos="492.80" arrivalSpeed="10.78" duration="87.00" routeLength="995.90" waitingTime="2.00" waitingCount="1" stopTime="0.00" timeLoss="14.79" rerouteNo="0" devices="tripinfo_EW_232" vType="car" speedFactor="0.98" vaporized=""/>