<?xml version="1.0" encoding="UTF-8"?>

<!-- generated on 2024-05-04 16:54:04 by Eclipse SUMO sumo Version 1.19.0
<configuration xmlns:xsi="http://www.w3.org/2001/XMLSchema-instance" xsi:noNamespaceSchemaLocation="http://sumo.dlr.de/xsd/sumoConfiguration.xsd">

    <input>
        <net-file value="test5.net.xml"/>
        <route-files value="route_gen.rou.xml"/>
    </input>

    <output>
        <tripinfo-output value="tripinfo_epi58.xml"/>
    </output>

    <report>
        <no-warnings value="true"/>
    </report>

    <traci_server>
        <remote-port value="50349"/>
    </traci_server>

</configuration>
-->

<tripinfos xmlns:xsi="http://www.w3.org/2001/XMLSchema-instance" xsi:noNamespaceSchemaLocation="http://sumo.dlr.de/xsd/tripinfo_file.xsd">
    <tripinfo id="SN_2" depart="2.00" departLane="3i_0" departPos="4.10" departSpeed="0.00" departDelay="0.00" arrival="79.00" arrivalLane="4o_0" arrivalPos="492.80" arrivalSpeed="11.46" duration="77.00" routeLength="995.90" waitingTime="1.00" waitingCount="1" stopTime="0.00" timeLoss="10.35" rerouteNo="0" devices="tripinfo_SN_2" vType="car" speedFactor="1.06" vaporized=""/>
    <tripinfo id="SN_13" depart="13.00" departLane="3i_0" departPos="4.10" departSpeed="0.00" departDelay="0.00" arrival="87.00" arrivalLane="4o_0" arrivalPos="492.80" arrivalSpeed="10.87" duration="74.00" routeLength="995.90" waitingTime="0.00" waitingCount="0" stopTime="0.00" timeLoss="8.26" rerouteNo="0" devices="tripinfo_SN_13" vType="car" speedFactor="1.08" vaporized=""/>
    <tripinfo id="EW_9" depart="9.00" departLane="4i_0" departPos="4.10" departSpeed="0.00" departDelay="0.00" arrival="101.00" arrivalLane="2o_0" arrivalPos="492.80" arrivalSpeed="10.95" duration="92.00" routeLength="995.70" waitingTime="9.00" waitingCount="1" stopTime="0.00" timeLoss="21.55" rerouteNo="0" devices="tripinfo_EW_9" vType="car" speedFactor="1.01" vaporized=""/>
    <tripinfo id="WE_4" depart="4.00" departLane="1i_0" departPos="4.10" departSpeed="0.00" departDelay="0.00" arrival="107.00" arrivalLane="2o_0" arrivalPos="492.80" arrivalSpeed="9.26" duration="103.00" routeLength="995.90" waitingTime="12.00" waitingCount="2" stopTime="0.00" timeLoss="27.41" rerouteNo="0" devices="tripinfo_WE_4" vType="car" speedFactor="0.94" vaporized=""/>
    <tripinfo id="WE_17" depart="17.00" departLane="1i_0" departPos="4.10" departSpeed="0.00" departDelay="0.00" arrival="109.00" arrivalLane="4o_0" arrivalPos="492.80" arrivalSpeed="10.47" duration="92.00" routeLength="995.70" waitingTime="6.00" waitingCount="2" stopTime="0.00" timeLoss="22.78" rerouteNo="0" devices="tripinfo_WE_17" vType="car" speedFactor="1.03" vaporized=""/>
    <tripinfo id="NS_22" depart="22.00" departLane="2i_0" departPos="4.10" departSpeed="0.00" departDelay="0.00" arrival="115.00" arrivalLane="3o_0" arrivalPos="492.80" arrivalSpeed="9.03" duration="93.00" routeLength="995.70" waitingTime="1.00" waitingCount="1" stopTime="0.00" timeLoss="13.35" rerouteNo="0" devices="tripinfo_NS_22" vType="car" speedFactor="0.89" vaporized=""/>
    <tripinfo id="SN_18" depart="18.00" departLane="3i_0" departPos="4.10" departSpeed="0.00" departDelay="0.00" arrival="116.00" arrivalLane="2o_0" arrivalPos="492.80" arrivalSpeed="8.91" duration="98.00" routeLength="990.53" waitingTime="0.00" waitingCount="0" stopTime="0.00" timeLoss="13.17" rerouteNo="0" devices="tripinfo_SN_18" vType="car" speedFactor="0.83" vaporized=""/>
    <tripinfo id="NS_23" depart="25.00" departLane="2i_0" departPos="4.10" departSpeed="0.00" departDelay="2.00" arrival="118.00" arrivalLane="4o_0" arrivalPos="492.80" arrivalSpeed="9.58" duration="93.00" routeLength="990.53" waitingTime="2.00" waitingCount="2" stopTime="0.00" timeLoss="17.28" rerouteNo="0" devices="tripinfo_NS_23" vType="car" speedFactor="0.94" vaporized=""/>
    <tripinfo id="EW_32" depart="32.00" departLane="4i_0" departPos="4.10" departSpeed="0.00" departDelay="0.00" arrival="118.00" arrivalLane="2o_0" arrivalPos="492.80" arrivalSpeed="11.52" duration="86.00" routeLength="995.70" waitingTime="0.00" waitingCount="0" stopTime="0.00" timeLoss="17.75" rerouteNo="0" devices="tripinfo_EW_32" vType="car" speedFactor="1.05" vaporized=""/>
    <tripinfo id="NS_30" depart="30.00" departLane="2i_0" departPos="4.10" departSpeed="0.00" departDelay="0.00" arrival="119.00" arrivalLane="4o_0" arrivalPos="492.80" arrivalSpeed="11.31" duration="89.00" routeLength="990.53" waitingTime="1.00" waitingCount="1" stopTime="0.00" timeLoss="24.46" rerouteNo="0" devices="tripinfo_NS_30" vType="car" speedFactor="1.09" vaporized=""/>
    <tripinfo id="SN_31" depart="31.00" departLane="3i_0" departPos="4.10" departSpeed="0.00" departDelay="0.00" arrival="120.00" arrivalLane="1o_0" arrivalPos="492.80" arrivalSpeed="10.34" duration="89.00" routeLength="995.70" waitingTime="7.00" waitingCount="1" stopTime="0.00" timeLoss="19.72" rerouteNo="0" devices="tripinfo_SN_31" vType="car" speedFactor="1.03" vaporized=""/>
    <tripinfo id="WE_19" depart="20.00" departLane="1i_0" departPos="4.10" departSpeed="0.00" departDelay="1.00" arrival="122.00" arrivalLane="2o_0" arrivalPos="492.80" arrivalSpeed="11.09" duration="102.00" routeLength="995.90" waitingTime="11.00" waitingCount="3" stopTime="0.00" timeLoss="34.04" rerouteNo="0" devices="tripinfo_WE_19" vType="car" speedFactor="1.05" vaporized=""/>
    <tripinfo id="NS_42" depart="42.00" departLane="2i_0" departPos="10.10" departSpeed="0.00" departDelay="0.00" arrival="135.00" arrivalLane="4o_0" arrivalPos="492.80" arrivalSpeed="10.46" duration="93.00" routeLength="984.53" waitingTime="1.00" waitingCount="1" stopTime="0.00" timeLoss="22.45" rerouteNo="0" devices="tripinfo_NS_42" vType="truck" speedFactor="1.00" vaporized=""/>
    <tripinfo id="EW_52" depart="52.00" departLane="4i_0" departPos="4.10" departSpeed="0.00" departDelay="0.00" arrival="136.00" arrivalLane="1o_0" arrivalPos="492.80" arrivalSpeed="9.25" duration="84.00" routeLength="990.53" waitingTime="0.00" waitingCount="0" stopTime="0.00" timeLoss="9.14" rerouteNo="0" devices="tripinfo_EW_52" vType="car" speedFactor="0.94" vaporized=""/>
    <tripinfo id="WE_36" depart="36.00" departLane="1i_0" departPos="4.10" departSpeed="0.00" departDelay="0.00" arrival="137.00" arrivalLane="2o_0" arrivalPos="492.80" arrivalSpeed="12.13" duration="101.00" routeLength="995.90" waitingTime="12.00" waitingCount="4" stopTime="0.00" timeLoss="37.41" rerouteNo="0" devices="tripinfo_WE_36" vType="car" speedFactor="1.12" vaporized=""/>
    <tripinfo id="WE_29" depart="29.00" departLane="1i_0" departPos="4.10" departSpeed="0.00" departDelay="0.00" arrival="147.00" arrivalLane="4o_0" arrivalPos="492.80" arrivalSpeed="8.79" duration="118.00" routeLength="995.70" waitingTime="12.00" waitingCount="3" stopTime="0.00" timeLoss="35.33" rerouteNo="0" devices="tripinfo_WE_29" vType="car" speedFactor="0.86" vaporized=""/>
    <tripinfo id="NS_51" depart="51.00" departLane="2i_0" departPos="4.10" departSpeed="0.00" departDelay="0.00" arrival="149.00" arrivalLane="1o_0" arrivalPos="492.80" arrivalSpeed="9.43" duration="98.00" routeLength="995.90" waitingTime="1.00" waitingCount="1" stopTime="0.00" timeLoss="17.43" rerouteNo="0" devices="tripinfo_NS_51" vType="car" speedFactor="0.88" vaporized=""/>
    <tripinfo id="SN_57" depart="57.00" departLane="3i_0" departPos="10.10" departSpeed="0.00" departDelay="0.00" arrival="152.00" arrivalLane="1o_0" arrivalPos="492.80" arrivalSpeed="10.88" duration="95.00" routeLength="989.70" waitingTime="0.00" waitingCount="0" stopTime="0.00" timeLoss="24.55" rerouteNo="0" devices="tripinfo_SN_57" vType="truck" speedFactor="1.01" vaporized=""/>
    <tripinfo id="WE_49" depart="49.00" departLane="1i_0" departPos="4.10" departSpeed="0.00" departDelay="0.00" arrival="153.00" arrivalLane="3o_0" arrivalPos="492.80" arrivalSpeed="9.66" duration="104.00" routeLength="990.53" waitingTime="4.00" waitingCount="3" stopTime="0.00" timeLoss="27.41" rerouteNo="0" devices="tripinfo_WE_49" vType="car" speedFactor="0.93" vaporized=""/>
    <tripinfo id="NS_53" depart="54.00" departLane="2i_0" departPos="4.10" departSpeed="0.00" departDelay="1.00" arrival="154.00" arrivalLane="3o_0" arrivalPos="492.80" arrivalSpeed="11.19" duration="100.00" routeLength="995.70" waitingTime="3.00" waitingCount="3" stopTime="0.00" timeLoss="39.04" rerouteNo="0" devices="tripinfo_NS_53" vType="car" speedFactor="1.16" vaporized=""/>
    <tripinfo id="WE_53" depart="53.00" departLane="1i_0" departPos="4.10" departSpeed="0.00" departDelay="0.00" arrival="161.00" arrivalLane="3o_0" arrivalPos="492.80" arrivalSpeed="9.49" duration="108.00" routeLength="990.53" waitingTime="4.00" waitingCount="2" stopTime="0.00" timeLoss="32.80" rerouteNo="0" devices="tripinfo_WE_53" vType="car" speedFactor="0.94" vaporized=""/>
    <tripinfo id="EW_77" depart="77.00" departLane="4i_0" departPos="4.10" departSpeed="0.00" departDelay="0.00" arrival="166.00" arrivalLane="3o_0" arrivalPos="492.80" arrivalSpeed="9.41" duration="89.00" routeLength="995.90" waitingTime="0.00" waitingCount="0" stopTime="0.00" timeLoss="9.09" rerouteNo="0" devices="tripinfo_EW_77" vType="car" speedFactor="0.89" vaporized=""/>
    <tripinfo id="WE_64" depart="64.00" departLane="1i_0" departPos="4.10" departSpeed="0.00" departDelay="0.00" arrival="168.00" arrivalLane="3o_0" arrivalPos="492.80" arrivalSpeed="10.22" duration="104.00" routeLength="990.53" waitingTime="6.00" waitingCount="2" stopTime="0.00" timeLoss="33.64" rerouteNo="0" devices="tripinfo_WE_64" vType="car" speedFactor="1.01" vaporized=""/>
    <tripinfo id="EW_80" depart="81.00" departLane="4i_0" departPos="10.10" departSpeed="0.00" departDelay="1.00" arrival="170.00" arrivalLane="3o_0" arrivalPos="492.80" arrivalSpeed="10.30" duration="89.00" routeLength="989.90" waitingTime="0.00" waitingCount="0" stopTime="0.00" timeLoss="13.65" rerouteNo="0" devices="tripinfo_EW_80" vType="truck" speedFactor="0.94" vaporized=""/>
    <tripinfo id="SN_77" depart="77.00" departLane="3i_0" departPos="4.10" departSpeed="0.00" departDelay="0.00" arrival="172.00" arrivalLane="4o_0" arrivalPos="492.80" arrivalSpeed="8.33" duration="95.00" routeLength="995.90" waitingTime="0.00" waitingCount="0" stopTime="0.00" timeLoss="9.58" rerouteNo="0" devices="tripinfo_SN_77" vType="car" speedFactor="0.83" vaporized=""/>
    <tripinfo id="EW_84" depart="87.00" departLane="4i_0" departPos="4.10" departSpeed="0.00" departDelay="3.00" arrival="176.00" arrivalLane="2o_0" arrivalPos="492.80" arrivalSpeed="9.51" duration="89.00" routeLength="995.70" waitingTime="0.00" waitingCount="0" stopTime="0.00" timeLoss="11.25" rerouteNo="0" devices="tripinfo_EW_84" vType="car" speedFactor="0.92" vaporized=""/>
    <tripinfo id="SN_87" depart="90.00" departLane="3i_0" departPos="4.10" departSpeed="0.00" departDelay="3.00" arrival="176.00" arrivalLane="4o_0" arrivalPos="492.80" arrivalSpeed="12.06" duration="86.00" routeLength="995.90" waitingTime="0.00" waitingCount="0" stopTime="0.00" timeLoss="23.48" rerouteNo="0" devices="tripinfo_SN_87" vType="car" speedFactor="1.13" vaporized=""/>
    <tripinfo id="WE_72" depart="72.00" departLane="1i_0" departPos="4.10" departSpeed="0.00" departDelay="0.00" arrival="177.00" arrivalLane="2o_0" arrivalPos="492.80" arrivalSpeed="9.93" duration="105.00" routeLength="995.90" waitingTime="9.00" waitingCount="3" stopTime="0.00" timeLoss="32.68" rerouteNo="0" devices="tripinfo_WE_72" vType="car" speedFactor="0.97" vaporized=""/>
    <tripinfo id="SN_91" depart="93.00" departLane="3i_0" departPos="4.10" departSpeed="0.00" departDelay="2.00" arrival="179.00" arrivalLane="2o_0" arrivalPos="492.80" arrivalSpeed="11.96" duration="86.00" routeLength="990.53" waitingTime="0.00" waitingCount="0" stopTime="0.00" timeLoss="25.98" rerouteNo="0" devices="tripinfo_SN_91" vType="car" speedFactor="1.18" vaporized=""/>
    <tripinfo id="SN_86" depart="86.00" departLane="3i_0" departPos="10.10" departSpeed="0.00" departDelay="0.00" arrival="180.00" arrivalLane="1o_0" arrivalPos="492.80" arrivalSpeed="10.60" duration="94.00" routeLength="989.70" waitingTime="0.00" waitingCount="0" stopTime="0.00" timeLoss="21.77" rerouteNo="0" devices="tripinfo_SN_86" vType="truck" speedFactor="0.97" vaporized=""/>
    <tripinfo id="WE_91" depart="91.00" departLane="1i_0" departPos="4.10" departSpeed="0.00" departDelay="0.00" arrival="181.00" arrivalLane="3o_0" arrivalPos="492.80" arrivalSpeed="9.63" duration="90.00" routeLength="990.53" waitingTime="0.00" waitingCount="0" stopTime="0.00" timeLoss="14.38" rerouteNo="0" devices="tripinfo_WE_91" vType="car" speedFactor="0.93" vaporized=""/>
    <tripinfo id="WE_108" depart="108.00" departLane="1i_0" departPos="4.10" departSpeed="0.00" departDelay="0.00" arrival="181.00" arrivalLane="2o_0" arrivalPos="492.80" arrivalSpeed="12.95" duration="73.00" routeLength="995.90" waitingTime="0.00" waitingCount="0" stopTime="0.00" timeLoss="12.41" rerouteNo="0" devices="tripinfo_WE_108" vType="car" speedFactor="1.18" vaporized=""/>
    <tripinfo id="WE_92" depart="94.00" departLane="1i_0" departPos="4.10" departSpeed="0.00" departDelay="2.00" arrival="183.00" arrivalLane="3o_0" arrivalPos="492.80" arrivalSpeed="12.49" duration="89.00" routeLength="990.53" waitingTime="0.00" waitingCount="0" stopTime="0.00" timeLoss="27.58" rerouteNo="0" devices="tripinfo_WE_92" vType="car" speedFactor="1.15" vaporized=""/>
    <tripinfo id="SN_98" depart="100.00" departLane="3i_0" departPos="10.10" departSpeed="0.00" departDelay="2.00" arrival="185.00" arrivalLane="2o_0" arrivalPos="492.80" arrivalSpeed="11.90" duration="85.00" routeLength="984.53" waitingTime="0.00" waitingCount="0" stopTime="0.00" timeLoss="19.35" rerouteNo="0" devices="tripinfo_SN_98" vType="truck" speedFactor="1.09" vaporized=""/>
    <tripinfo id="SN_96" depart="96.00" departLane="3i_0" departPos="4.10" departSpeed="0.00" departDelay="0.00" arrival="186.00" arrivalLane="4o_0" arrivalPos="492.80" arrivalSpeed="10.56" duration="90.00" routeLength="995.90" waitingTime="0.00" waitingCount="0" stopTime="0.00" timeLoss="19.00" rerouteNo="0" devices="tripinfo_SN_96" vType="car" speedFactor="1.01" vaporized=""/>
    <tripinfo id="NS_103" depart="103.00" departLane="2i_0" departPos="4.10" departSpeed="0.00" departDelay="0.00" arrival="191.00" arrivalLane="3o_0" arrivalPos="492.80" arrivalSpeed="10.70" duration="88.00" routeLength="995.70" waitingTime="1.00" waitingCount="1" stopTime="0.00" timeLoss="16.47" rerouteNo="0" devices="tripinfo_NS_103" vType="car" speedFactor="0.99" vaporized=""/>
    <tripinfo id="SN_104" depart="104.00" departLane="3i_0" departPos="4.10" departSpeed="0.00" departDelay="0.00" arrival="191.00" arrivalLane="2o_0" arrivalPos="492.80" arrivalSpeed="10.60" duration="87.00" routeLength="990.53" waitingTime="0.00" waitingCount="0" stopTime="0.00" timeLoss="17.97" rerouteNo="0" devices="tripinfo_SN_104" vType="car" speedFactor="1.02" vaporized=""/>
    <tripinfo id="SN_106" depart="107.00" departLane="3i_0" departPos="4.10" departSpeed="0.00" departDelay="1.00" arrival="196.00" arrivalLane="4o_0" arrivalPos="492.80" arrivalSpeed="10.26" duration="89.00" routeLength="995.90" waitingTime="0.00" waitingCount="0" stopTime="0.00" timeLoss="15.51" rerouteNo="0" devices="tripinfo_SN_106" vType="car" speedFactor="0.97" vaporized=""/>
    <tripinfo id="EW_119" depart="119.00" departLane="4i_0" departPos="4.10" departSpeed="0.00" departDelay="0.00" arrival="196.00" arrivalLane="2o_0" arrivalPos="492.80" arrivalSpeed="12.04" duration="77.00" routeLength="995.70" waitingTime="0.00" waitingCount="0" stopTime="0.00" timeLoss="11.45" rerouteNo="0" devices="tripinfo_EW_119" vType="car" speedFactor="1.09" vaporized=""/>
    <tripinfo id="SN_117" depart="117.00" departLane="3i_0" departPos="10.10" departSpeed="0.00" departDelay="0.00" arrival="202.00" arrivalLane="4o_0" arrivalPos="492.80" arrivalSpeed="10.34" duration="85.00" routeLength="989.90" waitingTime="0.00" waitingCount="0" stopTime="0.00" timeLoss="13.21" rerouteNo="0" devices="tripinfo_SN_117" vType="truck" speedFactor="0.98" vaporized=""/>
    <tripinfo id="WE_109" depart="111.00" departLane="1i_0" departPos="4.10" departSpeed="0.00" departDelay="2.00" arrival="205.00" arrivalLane="2o_0" arrivalPos="492.80" arrivalSpeed="11.32" duration="94.00" routeLength="995.90" waitingTime="14.00" waitingCount="1" stopTime="0.00" timeLoss="29.99" rerouteNo="0" devices="tripinfo_WE_109" vType="car" speedFactor="1.10" vaporized=""/>
    <tripinfo id="NS_123" depart="123.00" departLane="2i_0" departPos="10.10" departSpeed="0.00" departDelay="0.00" arrival="205.00" arrivalLane="4o_0" arrivalPos="492.80" arrivalSpeed="11.43" duration="82.00" routeLength="984.53" waitingTime="0.00" waitingCount="0" stopTime="0.00" timeLoss="14.10" rerouteNo="0" devices="tripinfo_NS_123" vType="truck" speedFactor="1.04" vaporized=""/>
    <tripinfo id="NS_125" depart="127.00" departLane="2i_0" departPos="4.10" departSpeed="0.00" departDelay="2.00" arrival="212.00" arrivalLane="4o_0" arrivalPos="492.80" arrivalSpeed="10.78" duration="85.00" routeLength="990.53" waitingTime="0.00" waitingCount="0" stopTime="0.00" timeLoss="14.43" rerouteNo="0" devices="tripinfo_NS_125" vType="car" speedFactor="1.00" vaporized=""/>
    <tripinfo id="WE_115" depart="115.00" departLane="1i_0" departPos="10.10" departSpeed="0.00" departDelay="0.00" arrival="220.00" arrivalLane="3o_0" arrivalPos="492.80" arrivalSpeed="10.16" duration="105.00" routeLength="984.53" waitingTime="7.00" waitingCount="2" stopTime="0.00" timeLoss="31.23" rerouteNo="0" devices="tripinfo_WE_115" vType="truck" speedFactor="0.95" vaporized=""/>
    <tripinfo id="NS_128" depart="130.00" departLane="2i_0" departPos="4.10" departSpeed="0.00" departDelay="2.00" arrival="221.00" arrivalLane="1o_0" arrivalPos="492.80" arrivalSpeed="8.95" duration="91.00" routeLength="995.90" waitingTime="0.00" waitingCount="0" stopTime="0.00" timeLoss="12.21" rerouteNo="0" devices="tripinfo_NS_128" vType="car" speedFactor="0.90" vaporized=""/>
    <tripinfo id="NS_141" depart="141.00" departLane="2i_0" departPos="4.10" departSpeed="0.00" departDelay="0.00" arrival="221.00" arrivalLane="4o_0" arrivalPos="492.80" arrivalSpeed="9.86" duration="80.00" routeLength="990.53" waitingTime="0.00" waitingCount="0" stopTime="0.00" timeLoss="9.75" rerouteNo="0" devices="tripinfo_NS_141" vType="car" speedFactor="1.00" vaporized=""/>
    <tripinfo id="WE_116" depart="120.00" departLane="1i_0" departPos="4.10" departSpeed="0.00" departDelay="4.00" arrival="222.00" arrivalLane="3o_0" arrivalPos="492.80" arrivalSpeed="10.36" duration="102.00" routeLength="990.53" waitingTime="3.00" waitingCount="1" stopTime="0.00" timeLoss="33.91" rerouteNo="0" devices="tripinfo_WE_116" vType="car" speedFactor="1.03" vaporized=""/>
    <tripinfo id="NS_137" depart="137.00" departLane="2i_0" departPos="4.10" departSpeed="0.00" departDelay="0.00" arrival="223.00" arrivalLane="1o_0" arrivalPos="492.80" arrivalSpeed="12.01" duration="86.00" routeLength="995.90" waitingTime="0.00" waitingCount="0" stopTime="0.00" timeLoss="24.79" rerouteNo="0" devices="tripinfo_NS_137" vType="car" speedFactor="1.17" vaporized=""/>
    <tripinfo id="WE_121" depart="123.00" departLane="1i_0" departPos="4.10" departSpeed="0.00" departDelay="2.00" arrival="229.00" arrivalLane="3o_0" arrivalPos="492.80" arrivalSpeed="11.01" duration="106.00" routeLength="990.53" waitingTime="8.00" waitingCount="2" stopTime="0.00" timeLoss="38.26" rerouteNo="0" devices="tripinfo_WE_121" vType="car" speedFactor="1.04" vaporized=""/>
    <tripinfo id="SN_136" depart="136.00" departLane="3i_0" departPos="4.10" departSpeed="0.00" departDelay="0.00" arrival="230.00" arrivalLane="1o_0" arrivalPos="492.80" arrivalSpeed="9.44" duration="94.00" routeLength="995.70" waitingTime="0.00" waitingCount="0" stopTime="0.00" timeLoss="10.59" rerouteNo="0" devices="tripinfo_SN_136" vType="car" speedFactor="0.85" vaporized=""/>
    <tripinfo id="SN_150" depart="150.00" departLane="3i_0" departPos="4.10" departSpeed="0.00" departDelay="0.00" arrival="231.00" arrivalLane="2o_0" arrivalPos="492.80" arrivalSpeed="11.28" duration="81.00" routeLength="990.53" waitingTime="1.00" waitingCount="1" stopTime="0.00" timeLoss="11.87" rerouteNo="0" devices="tripinfo_SN_150" vType="car" speedFactor="1.02" vaporized=""/>
    <tripinfo id="SN_139" depart="139.00" departLane="3i_0" departPos="4.10" departSpeed="0.00" departDelay="0.00" arrival="232.00" arrivalLane="1o_0" arrivalPos="492.80" arrivalSpeed="11.21" duration="93.00" routeLength="995.70" waitingTime="0.00" waitingCount="0" stopTime="0.00" timeLoss="23.01" rerouteNo="0" devices="tripinfo_SN_139" vType="car" speedFactor="1.02" vaporized=""/>
    <tripinfo id="WE_123" depart="126.00" departLane="1i_0" departPos="4.10" departSpeed="0.00" departDelay="3.00" arrival="234.00" arrivalLane="2o_0" arrivalPos="492.80" arrivalSpeed="11.56" duration="108.00" routeLength="995.90" waitingTime="5.00" waitingCount="2" stopTime="0.00" timeLoss="40.34" rerouteNo="0" devices="tripinfo_WE_123" vType="car" speedFactor="1.04" vaporized=""/>
    <tripinfo id="SN_145" depart="145.00" departLane="3i_0" departPos="4.10" departSpeed="0.00" departDelay="0.00" arrival="234.00" arrivalLane="1o_0" arrivalPos="492.80" arrivalSpeed="8.96" duration="89.00" routeLength="995.70" waitingTime="0.00" waitingCount="0" stopTime="0.00" timeLoss="10.05" rerouteNo="0" devices="tripinfo_SN_145" vType="car" speedFactor="0.90" vaporized=""/>
    <tripinfo id="SN_161" depart="161.00" departLane="3i_0" departPos="4.10" departSpeed="0.00" departDelay="0.00" arrival="236.00" arrivalLane="2o_0" arrivalPos="492.80" arrivalSpeed="11.16" duration="75.00" routeLength="990.53" waitingTime="0.00" waitingCount="0" stopTime="0.00" timeLoss="11.97" rerouteNo="0" devices="tripinfo_SN_161" vType="car" speedFactor="1.12" vaporized=""/>
    <tripinfo id="NS_160" depart="160.00" departLane="2i_0" departPos="4.10" departSpeed="0.00" departDelay="0.00" arrival="241.00" arrivalLane="1o_0" arrivalPos="492.80" arrivalSpeed="10.95" duration="81.00" routeLength="995.90" waitingTime="1.00" waitingCount="1" stopTime="0.00" timeLoss="15.09" rerouteNo="0" devices="tripinfo_NS_160" vType="car" speedFactor="1.08" vaporized=""/>
    <tripinfo id="NS_163" depart="163.00" departLane="2i_0" departPos="4.10" departSpeed="0.00" departDelay="0.00" arrival="246.00" arrivalLane="3o_0" arrivalPos="492.80" arrivalSpeed="10.74" duration="83.00" routeLength="995.70" waitingTime="0.00" waitingCount="0" stopTime="0.00" timeLoss="13.12" rerouteNo="0" devices="tripinfo_NS_163" vType="car" speedFactor="1.02" vaporized=""/>
    <tripinfo id="EW_172" depart="172.00" departLane="4i_0" departPos="4.10" departSpeed="0.00" departDelay="0.00" arrival="248.00" arrivalLane="1o_0" arrivalPos="492.80" arrivalSpeed="10.44" duration="76.00" routeLength="990.53" waitingTime="0.00" waitingCount="0" stopTime="0.00" timeLoss="7.64" rerouteNo="0" devices="tripinfo_EW_172" vType="car" speedFactor="1.04" vaporized=""/>
    <tripinfo id="NS_164" depart="166.00" departLane="2i_0" departPos="4.10" departSpeed="0.00" departDelay="2.00" arrival="250.00" arrivalLane="3o_0" arrivalPos="492.80" arrivalSpeed="10.76" duration="84.00" routeLength="995.70" waitingTime="0.00" waitingCount="0" stopTime="0.00" timeLoss="11.71" rerouteNo="0" devices="tripinfo_NS_164" vType="car" speedFactor="0.99" vaporized=""/>
    <tripinfo id="WE_136" depart="136.00" departLane="1i_0" departPos="10.10" departSpeed="0.00" departDelay="0.00" arrival="252.00" arrivalLane="4o_0" arrivalPos="492.80" arrivalSpeed="9.95" duration="116.00" routeLength="989.70" waitingTime="9.00" waitingCount="3" stopTime="0.00" timeLoss="40.84" rerouteNo="0" devices="tripinfo_WE_136" vType="truck" speedFactor="0.94" vaporized=""/>
    <tripinfo id="WE_141" depart="143.00" departLane="1i_0" departPos="4.10" departSpeed="0.00" departDelay="2.00" arrival="261.00" arrivalLane="2o_0" arrivalPos="492.80" arrivalSpeed="11.17" duration="118.00" routeLength="995.90" waitingTime="5.00" waitingCount="5" stopTime="0.00" timeLoss="53.21" rerouteNo="0" devices="tripinfo_WE_141" vType="car" speedFactor="1.10" vaporized=""/>
    <tripinfo id="SN_167" depart="170.00" departLane="3i_0" departPos="10.10" departSpeed="0.00" departDelay="3.00" arrival="263.00" arrivalLane="4o_0" arrivalPos="492.80" arrivalSpeed="10.01" duration="93.00" routeLength="989.90" waitingTime="1.00" waitingCount="1" stopTime="0.00" timeLoss="18.51" rerouteNo="0" devices="tripinfo_SN_167" vType="truck" speedFactor="0.95" vaporized=""/>
    <tripinfo id="NS_166" depart="169.00" departLane="2i_0" departPos="4.10" departSpeed="0.00" departDelay="3.00" arrival="264.00" arrivalLane="1o_0" arrivalPos="492.80" arrivalSpeed="8.51" duration="95.00" routeLength="995.90" waitingTime="0.00" waitingCount="0" stopTime="0.00" timeLoss="14.81" rerouteNo="0" devices="tripinfo_NS_166" vType="car" speedFactor="0.88" vaporized=""/>
    <tripinfo id="WE_137" depart="140.00" departLane="1i_0" departPos="4.10" departSpeed="0.00" departDelay="3.00" arrival="265.00" arrivalLane="3o_0" arrivalPos="492.80" arrivalSpeed="8.76" duration="125.00" routeLength="990.53" waitingTime="9.00" waitingCount="4" stopTime="0.00" timeLoss="42.19" rerouteNo="0" devices="tripinfo_WE_137" vType="car" speedFactor="0.85" vaporized=""/>
    <tripinfo id="EW_179" depart="179.00" departLane="4i_0" departPos="4.10" departSpeed="0.00" departDelay="0.00" arrival="266.00" arrivalLane="1o_0" arrivalPos="492.80" arrivalSpeed="10.84" duration="87.00" routeLength="990.53" waitingTime="0.00" waitingCount="0" stopTime="0.00" timeLoss="17.78" rerouteNo="0" devices="tripinfo_EW_179" vType="car" speedFactor="1.02" vaporized=""/>
    <tripinfo id="SN_190" depart="191.00" departLane="3i_0" departPos="4.10" departSpeed="0.00" departDelay="1.00" arrival="270.00" arrivalLane="2o_0" arrivalPos="492.80" arrivalSpeed="10.88" duration="79.00" routeLength="990.53" waitingTime="1.00" waitingCount="1" stopTime="0.00" timeLoss="12.05" rerouteNo="0" devices="tripinfo_SN_190" vType="car" speedFactor="1.06" vaporized=""/>
    <tripinfo id="NS_170" depart="172.00" departLane="2i_0" departPos="4.10" departSpeed="0.00" departDelay="2.00" arrival="271.00" arrivalLane="1o_0" arrivalPos="492.80" arrivalSpeed="9.79" duration="99.00" routeLength="995.90" waitingTime="2.00" waitingCount="2" stopTime="0.00" timeLoss="20.89" rerouteNo="0" devices="tripinfo_NS_170" vType="car" speedFactor="0.91" vaporized=""/>
    <tripinfo id="SN_183" depart="183.00" departLane="3i_0" departPos="4.10" departSpeed="0.00" departDelay="0.00" arrival="271.00" arrivalLane="4o_0" arrivalPos="492.80" arrivalSpeed="9.35" duration="88.00" routeLength="995.90" waitingTime="0.00" waitingCount="0" stopTime="0.00" timeLoss="12.26" rerouteNo="0" devices="tripinfo_SN_183" vType="car" speedFactor="0.94" vaporized=""/>
    <tripinfo id="WE_144" depart="146.00" departLane="1i_0" departPos="4.10" departSpeed="0.00" departDelay="2.00" arrival="273.00" arrivalLane="4o_0" arrivalPos="492.80" arrivalSpeed="9.83" duration="127.00" routeLength="995.70" waitingTime="2.00" waitingCount="2" stopTime="0.00" timeLoss="55.35" rerouteNo="0" devices="tripinfo_WE_144" vType="car" speedFactor="1.00" vaporized=""/>
    <tripinfo id="NS_183" depart="185.00" departLane="2i_0" departPos="4.10" departSpeed="0.00" departDelay="2.00" arrival="275.00" arrivalLane="4o_0" arrivalPos="492.80" arrivalSpeed="9.77" duration="90.00" routeLength="990.53" waitingTime="2.00" waitingCount="2" stopTime="0.00" timeLoss="17.35" rerouteNo="0" devices="tripinfo_NS_183" vType="car" speedFactor="0.97" vaporized=""/>
    <tripinfo id="SN_195" depart="195.00" departLane="3i_0" departPos="4.10" departSpeed="0.00" departDelay="0.00" arrival="275.00" arrivalLane="2o_0" arrivalPos="492.80" arrivalSpeed="10.49" duration="80.00" routeLength="990.53" waitingTime="0.00" waitingCount="0" stopTime="0.00" timeLoss="8.27" rerouteNo="0" devices="tripinfo_SN_195" vType="car" speedFactor="0.98" vaporized=""/>
    <tripinfo id="WE_147" depart="149.00" departLane="1i_0" departPos="4.10" departSpeed="0.00" departDelay="2.00" arrival="276.00" arrivalLane="4o_0" arrivalPos="492.80" arrivalSpeed="12.45" duration="127.00" routeLength="995.70" waitingTime="0.00" waitingCount="0" stopTime="0.00" timeLoss="65.26" rerouteNo="0" devices="tripinfo_WE_147" vType="car" speedFactor="1.14" vaporized=""/>
    <tripinfo id="WE_152" depart="152.00" departLane="1i_0" departPos="4.10" departSpeed="0.00" departDelay="0.00" arrival="280.00" arrivalLane="2o_0" arrivalPos="492.80" arrivalSpeed="10.33" duration="128.00" routeLength="995.90" waitingTime="0.00" waitingCount="0" stopTime="0.00" timeLoss="54.27" rerouteNo="0" devices="tripinfo_WE_152" vType="car" speedFactor="0.97" vaporized=""/>
    <tripinfo id="NS_193" depart="193.00" departLane="2i_0" departPos="4.10" departSpeed="0.00" departDelay="0.00" arrival="281.00" arrivalLane="1o_0" arrivalPos="492.80" arrivalSpeed="10.38" duration="88.00" routeLength="995.90" waitingTime="0.00" waitingCount="0" stopTime="0.00" timeLoss="14.04" rerouteNo="0" devices="tripinfo_NS_193" vType="car" speedFactor="0.96" vaporized=""/>
    <tripinfo id="NS_196" depart="196.00" departLane="2i_0" departPos="4.10" departSpeed="0.00" departDelay="0.00" arrival="284.00" arrivalLane="1o_0" arrivalPos="492.80" arrivalSpeed="11.37" duration="88.00" routeLength="995.90" waitingTime="1.00" waitingCount="1" stopTime="0.00" timeLoss="18.84" rerouteNo="0" devices="tripinfo_NS_196" vType="car" speedFactor="1.03" vaporized=""/>
    <tripinfo id="WE_165" depart="165.00" departLane="1i_0" departPos="4.10" departSpeed="0.00" departDelay="0.00" arrival="288.00" arrivalLane="2o_0" arrivalPos="492.80" arrivalSpeed="10.01" duration="123.00" routeLength="995.90" waitingTime="1.00" waitingCount="1" stopTime="0.00" timeLoss="47.73" rerouteNo="0" devices="tripinfo_WE_165" vType="car" speedFactor="0.94" vaporized=""/>