<?xml version="1.0" encoding="UTF-8"?>

<!-- generated on 2024-05-04 20:32:27 by Eclipse SUMO sumo Version 1.19.0
<configuration xmlns:xsi="http://www.w3.org/2001/XMLSchema-instance" xsi:noNamespaceSchemaLocation="http://sumo.dlr.de/xsd/sumoConfiguration.xsd">

    <input>
        <net-file value="test5.net.xml"/>
        <route-files value="route_gen.rou.xml"/>
    </input>

    <output>
        <tripinfo-output value="tripinfo_epi822.xml"/>
    </output>

    <report>
        <no-warnings value="true"/>
    </report>

    <traci_server>
        <remote-port value="58031"/>
    </traci_server>

</configuration>
-->

<tripinfos xmlns:xsi="http://www.w3.org/2001/XMLSchema-instance" xsi:noNamespaceSchemaLocation="http://sumo.dlr.de/xsd/tripinfo_file.xsd">
    <tripinfo id="NS_2" depart="2.00" departLane="2i_0" departPos="4.10" departSpeed="0.00" departDelay="0.00" arrival="82.00" arrivalLane="1o_0" arrivalPos="492.80" arrivalSpeed="11.18" duration="80.00" routeLength="995.90" waitingTime="1.00" waitingCount="1" stopTime="0.00" timeLoss="12.81" rerouteNo="0" devices="tripinfo_NS_2" vType="car" speedFactor="1.06" vaporized=""/>
    <tripinfo id="EW_7" depart="7.00" departLane="4i_0" departPos="4.10" departSpeed="0.00" departDelay="0.00" arrival="85.00" arrivalLane="3o_0" arrivalPos="492.80" arrivalSpeed="11.06" duration="78.00" routeLength="995.90" waitingTime="0.00" waitingCount="0" stopTime="0.00" timeLoss="8.67" rerouteNo="0" devices="tripinfo_EW_7" vType="car" speedFactor="1.03" vaporized=""/>
    <tripinfo id="NS_8" depart="8.00" departLane="2i_0" departPos="4.10" departSpeed="0.00" departDelay="0.00" arrival="87.00" arrivalLane="3o_0" arrivalPos="492.80" arrivalSpeed="10.48" duration="79.00" routeLength="995.70" waitingTime="0.00" waitingCount="0" stopTime="0.00" timeLoss="10.70" rerouteNo="0" devices="tripinfo_NS_8" vType="car" speedFactor="1.05" vaporized=""/>
    <tripinfo id="WE_4" depart="6.00" departLane="1i_0" departPos="4.10" departSpeed="0.00" departDelay="2.00" arrival="92.00" arrivalLane="2o_0" arrivalPos="492.80" arrivalSpeed="10.55" duration="86.00" routeLength="995.90" waitingTime="0.00" waitingCount="0" stopTime="0.00" timeLoss="15.50" rerouteNo="0" devices="tripinfo_WE_4" vType="car" speedFactor="1.01" vaporized=""/>
    <tripinfo id="WE_3" depart="3.00" departLane="1i_0" departPos="4.10" departSpeed="0.00" departDelay="0.00" arrival="94.00" arrivalLane="4o_0" arrivalPos="492.80" arrivalSpeed="9.75" duration="91.00" routeLength="995.70" waitingTime="1.00" waitingCount="1" stopTime="0.00" timeLoss="15.59" rerouteNo="0" devices="tripinfo_WE_3" vType="car" speedFactor="0.94" vaporized=""/>
    <tripinfo id="WE_5" depart="8.00" departLane="1i_0" departPos="4.10" departSpeed="0.00" departDelay="3.00" arrival="98.00" arrivalLane="4o_0" arrivalPos="492.80" arrivalSpeed="10.91" duration="90.00" routeLength="995.70" waitingTime="1.00" waitingCount="1" stopTime="0.00" timeLoss="24.24" rerouteNo="0" devices="tripinfo_WE_5" vType="car" speedFactor="1.08" vaporized=""/>
    <tripinfo id="EW_9" depart="10.00" departLane="4i_0" departPos="4.10" departSpeed="0.00" departDelay="1.00" arrival="100.00" arrivalLane="3o_0" arrivalPos="492.80" arrivalSpeed="9.01" duration="90.00" routeLength="995.90" waitingTime="0.00" waitingCount="0" stopTime="0.00" timeLoss="10.25" rerouteNo="0" devices="tripinfo_EW_9" vType="car" speedFactor="0.89" vaporized=""/>
    <tripinfo id="SN_22" depart="22.00" departLane="3i_0" departPos="4.10" departSpeed="0.00" departDelay="0.00" arrival="101.00" arrivalLane="4o_0" arrivalPos="492.80" arrivalSpeed="10.93" duration="79.00" routeLength="995.90" waitingTime="0.00" waitingCount="0" stopTime="0.00" timeLoss="11.06" rerouteNo="0" devices="tripinfo_SN_22" vType="car" speedFactor="1.05" vaporized=""/>
    <tripinfo id="NS_14" depart="14.00" departLane="2i_0" departPos="4.10" departSpeed="0.00" departDelay="0.00" arrival="102.00" arrivalLane="3o_0" arrivalPos="492.80" arrivalSpeed="10.19" duration="88.00" routeLength="995.70" waitingTime="0.00" waitingCount="0" stopTime="0.00" timeLoss="12.36" rerouteNo="0" devices="tripinfo_NS_14" vType="car" speedFactor="0.94" vaporized=""/>
    <tripinfo id="SN_24" depart="24.00" departLane="3i_0" departPos="4.10" departSpeed="0.00" departDelay="0.00" arrival="103.00" arrivalLane="4o_0" arrivalPos="492.80" arrivalSpeed="12.39" duration="79.00" routeLength="995.90" waitingTime="0.00" waitingCount="0" stopTime="0.00" timeLoss="15.22" rerouteNo="0" devices="tripinfo_SN_24" vType="car" speedFactor="1.12" vaporized=""/>
    <tripinfo id="WE_19" depart="19.00" departLane="1i_0" departPos="4.10" departSpeed="0.00" departDelay="0.00" arrival="104.00" arrivalLane="2o_0" arrivalPos="492.80" arrivalSpeed="11.75" duration="85.00" routeLength="995.90" waitingTime="0.00" waitingCount="0" stopTime="0.00" timeLoss="20.22" rerouteNo="0" devices="tripinfo_WE_19" vType="car" speedFactor="1.09" vaporized=""/>
    <tripinfo id="WE_8" depart="12.00" departLane="1i_0" departPos="10.10" departSpeed="0.00" departDelay="4.00" arrival="108.00" arrivalLane="3o_0" arrivalPos="492.80" arrivalSpeed="10.03" duration="96.00" routeLength="984.53" waitingTime="0.00" waitingCount="0" stopTime="0.00" timeLoss="19.07" rerouteNo="0" devices="tripinfo_WE_8" vType="truck" speedFactor="0.92" vaporized=""/>
    <tripinfo id="SN_25" depart="27.00" departLane="3i_0" departPos="4.10" departSpeed="0.00" departDelay="2.00" arrival="112.00" arrivalLane="1o_0" arrivalPos="492.80" arrivalSpeed="10.79" duration="85.00" routeLength="995.70" waitingTime="0.00" waitingCount="0" stopTime="0.00" timeLoss="13.33" rerouteNo="0" devices="tripinfo_SN_25" vType="car" speedFactor="0.99" vaporized=""/>
    <tripinfo id="WE_33" depart="33.00" departLane="1i_0" departPos="4.10" departSpeed="0.00" departDelay="0.00" arrival="117.00" arrivalLane="3o_0" arrivalPos="492.80" arrivalSpeed="9.16" duration="84.00" routeLength="990.53" waitingTime="0.00" waitingCount="0" stopTime="0.00" timeLoss="8.39" rerouteNo="0" devices="tripinfo_WE_33" vType="car" speedFactor="0.94" vaporized=""/>
    <tripinfo id="NS_28" depart="28.00" departLane="2i_0" departPos="4.10" departSpeed="0.00" departDelay="0.00" arrival="122.00" arrivalLane="1o_0" arrivalPos="492.80" arrivalSpeed="10.21" duration="94.00" routeLength="995.90" waitingTime="4.00" waitingCount="1" stopTime="0.00" timeLoss="17.68" rerouteNo="0" devices="tripinfo_NS_28" vType="car" speedFactor="0.93" vaporized=""/>
    <tripinfo id="NS_18" depart="18.00" departLane="2i_0" departPos="4.10" departSpeed="0.00" departDelay="0.00" arrival="124.00" arrivalLane="3o_0" arrivalPos="492.80" arrivalSpeed="9.22" duration="106.00" routeLength="995.70" waitingTime="10.00" waitingCount="1" stopTime="0.00" timeLoss="23.67" rerouteNo="0" devices="tripinfo_NS_18" vType="car" speedFactor="0.86" vaporized=""/>
    <tripinfo id="NS_34" depart="34.00" departLane="2i_0" departPos="4.10" departSpeed="0.00" departDelay="0.00" arrival="124.00" arrivalLane="1o_0" arrivalPos="492.80" arrivalSpeed="12.82" duration="90.00" routeLength="995.90" waitingTime="7.00" waitingCount="2" stopTime="0.00" timeLoss="28.60" rerouteNo="0" devices="tripinfo_NS_34" vType="car" speedFactor="1.16" vaporized=""/>
    <tripinfo id="WE_34" depart="35.00" departLane="1i_0" departPos="4.10" departSpeed="0.00" departDelay="1.00" arrival="125.00" arrivalLane="4o_0" arrivalPos="492.80" arrivalSpeed="9.98" duration="90.00" routeLength="995.70" waitingTime="0.00" waitingCount="0" stopTime="0.00" timeLoss="13.91" rerouteNo="0" devices="tripinfo_WE_34" vType="car" speedFactor="0.94" vaporized=""/>
    <tripinfo id="EW_22" depart="22.00" departLane="4i_0" departPos="4.10" departSpeed="0.00" departDelay="0.00" arrival="126.00" arrivalLane="3o_0" arrivalPos="492.80" arrivalSpeed="10.39" duration="104.00" routeLength="995.90" waitingTime="15.00" waitingCount="3" stopTime="0.00" timeLoss="34.95" rerouteNo="0" devices="tripinfo_EW_22" vType="car" speedFactor="1.03" vaporized=""/>
    <tripinfo id="SN_39" depart="39.00" departLane="3i_0" departPos="4.10" departSpeed="0.00" departDelay="0.00" arrival="127.00" arrivalLane="4o_0" arrivalPos="492.80" arrivalSpeed="10.37" duration="88.00" routeLength="995.90" waitingTime="1.00" waitingCount="1" stopTime="0.00" timeLoss="17.30" rerouteNo="0" devices="tripinfo_SN_39" vType="car" speedFactor="1.01" vaporized=""/>
    <tripinfo id="NS_37" depart="38.00" departLane="2i_0" departPos="10.10" departSpeed="0.00" departDelay="1.00" arrival="129.00" arrivalLane="4o_0" arrivalPos="492.80" arrivalSpeed="11.04" duration="91.00" routeLength="984.53" waitingTime="0.00" waitingCount="0" stopTime="0.00" timeLoss="21.38" rerouteNo="0" devices="tripinfo_NS_37" vType="truck" speedFactor="1.01" vaporized=""/>
    <tripinfo id="EW_31" depart="31.00" departLane="4i_0" departPos="4.10" departSpeed="0.00" departDelay="0.00" arrival="136.00" arrivalLane="2o_0" arrivalPos="492.80" arrivalSpeed="9.71" duration="105.00" routeLength="995.70" waitingTime="6.00" waitingCount="2" stopTime="0.00" timeLoss="24.49" rerouteNo="0" devices="tripinfo_EW_31" vType="car" speedFactor="0.88" vaporized=""/>
    <tripinfo id="WE_49" depart="49.00" departLane="1i_0" departPos="4.10" departSpeed="0.00" departDelay="0.00" arrival="137.00" arrivalLane="3o_0" arrivalPos="492.80" arrivalSpeed="9.20" duration="88.00" routeLength="990.53" waitingTime="0.00" waitingCount="0" stopTime="0.00" timeLoss="9.16" rerouteNo="0" devices="tripinfo_WE_49" vType="car" speedFactor="0.89" vaporized=""/>
    <tripinfo id="EW_45" depart="45.00" departLane="4i_0" departPos="4.10" departSpeed="0.00" departDelay="0.00" arrival="139.00" arrivalLane="3o_0" arrivalPos="492.80" arrivalSpeed="10.39" duration="94.00" routeLength="995.90" waitingTime="0.00" waitingCount="0" stopTime="0.00" timeLoss="21.38" rerouteNo="0" devices="tripinfo_EW_45" vType="car" speedFactor="0.97" vaporized=""/>
    <tripinfo id="NS_61" depart="61.00" departLane="2i_0" departPos="4.10" departSpeed="0.00" departDelay="0.00" arrival="141.00" arrivalLane="3o_0" arrivalPos="492.80" arrivalSpeed="12.47" duration="80.00" routeLength="995.70" waitingTime="2.00" waitingCount="1" stopTime="0.00" timeLoss="19.54" rerouteNo="0" devices="tripinfo_NS_61" vType="car" speedFactor="1.18" vaporized=""/>
    <tripinfo id="EW_52" depart="52.00" departLane="4i_0" departPos="10.10" departSpeed="0.00" departDelay="0.00" arrival="142.00" arrivalLane="1o_0" arrivalPos="492.80" arrivalSpeed="10.17" duration="90.00" routeLength="984.53" waitingTime="0.00" waitingCount="0" stopTime="0.00" timeLoss="15.12" rerouteNo="0" devices="tripinfo_EW_52" vType="truck" speedFactor="0.94" vaporized=""/>
    <tripinfo id="WE_50" depart="52.00" departLane="1i_0" departPos="4.10" departSpeed="0.00" departDelay="2.00" arrival="148.00" arrivalLane="2o_0" arrivalPos="492.80" arrivalSpeed="8.59" duration="96.00" routeLength="995.90" waitingTime="0.00" waitingCount="0" stopTime="0.00" timeLoss="10.41" rerouteNo="0" devices="tripinfo_WE_50" vType="car" speedFactor="0.83" vaporized=""/>
    <tripinfo id="SN_57" depart="57.00" departLane="3i_0" departPos="10.10" departSpeed="0.00" departDelay="0.00" arrival="148.00" arrivalLane="4o_0" arrivalPos="492.80" arrivalSpeed="11.56" duration="91.00" routeLength="989.90" waitingTime="3.00" waitingCount="1" stopTime="0.00" timeLoss="23.61" rerouteNo="0" devices="tripinfo_SN_57" vType="truck" speedFactor="1.07" vaporized=""/>
    <tripinfo id="WE_57" depart="57.00" departLane="1i_0" departPos="4.10" departSpeed="0.00" departDelay="0.00" arrival="150.00" arrivalLane="2o_0" arrivalPos="492.80" arrivalSpeed="9.41" duration="93.00" routeLength="995.90" waitingTime="0.00" waitingCount="0" stopTime="0.00" timeLoss="18.17" rerouteNo="0" devices="tripinfo_WE_57" vType="car" speedFactor="0.95" vaporized=""/>
    <tripinfo id="NS_70" depart="70.00" departLane="2i_0" departPos="4.10" departSpeed="0.00" departDelay="0.00" arrival="151.00" arrivalLane="3o_0" arrivalPos="492.80" arrivalSpeed="12.99" duration="81.00" routeLength="995.70" waitingTime="6.00" waitingCount="2" stopTime="0.00" timeLoss="20.15" rerouteNo="0" devices="tripinfo_NS_70" vType="car" speedFactor="1.17" vaporized=""/>
    <tripinfo id="EW_53" depart="56.00" departLane="4i_0" departPos="4.10" departSpeed="0.00" departDelay="3.00" arrival="152.00" arrivalLane="1o_0" arrivalPos="492.80" arrivalSpeed="9.65" duration="96.00" routeLength="990.53" waitingTime="1.00" waitingCount="1" stopTime="0.00" timeLoss="19.45" rerouteNo="0" devices="tripinfo_EW_53" vType="car" speedFactor="0.92" vaporized=""/>
    <tripinfo id="WE_70" depart="70.00" departLane="1i_0" departPos="4.10" departSpeed="0.00" departDelay="0.00" arrival="154.00" arrivalLane="2o_0" arrivalPos="492.80" arrivalSpeed="11.05" duration="84.00" routeLength="995.90" waitingTime="0.00" waitingCount="0" stopTime="0.00" timeLoss="13.14" rerouteNo="0" devices="tripinfo_WE_70" vType="car" speedFactor="1.01" vaporized=""/>
    <tripinfo id="SN_60" depart="62.00" departLane="3i_0" departPos="10.10" departSpeed="0.00" departDelay="2.00" arrival="164.00" arrivalLane="4o_0" arrivalPos="492.80" arrivalSpeed="10.63" duration="102.00" routeLength="989.90" waitingTime="2.00" waitingCount="2" stopTime="0.00" timeLoss="29.12" rerouteNo="0" devices="tripinfo_SN_60" vType="truck" speedFactor="0.97" vaporized=""/>
    <tripinfo id="NS_79" depart="79.00" departLane="2i_0" departPos="4.10" departSpeed="0.00" departDelay="0.00" arrival="167.00" arrivalLane="4o_0" arrivalPos="492.80" arrivalSpeed="10.59" duration="88.00" routeLength="990.53" waitingTime="3.00" waitingCount="1" stopTime="0.00" timeLoss="18.35" rerouteNo="0" devices="tripinfo_NS_79" vType="car" speedFactor="1.02" vaporized=""/>
    <tripinfo id="WE_72" depart="73.00" departLane="1i_0" departPos="10.10" departSpeed="0.00" departDelay="1.00" arrival="171.00" arrivalLane="4o_0" arrivalPos="492.80" arrivalSpeed="10.56" duration="98.00" routeLength="989.70" waitingTime="2.00" waitingCount="1" stopTime="0.00" timeLoss="26.87" rerouteNo="0" devices="tripinfo_WE_72" vType="truck" speedFactor="1.00" vaporized=""/>
    <tripinfo id="SN_67" depart="67.00" departLane="3i_0" departPos="4.10" departSpeed="0.00" departDelay="0.00" arrival="173.00" arrivalLane="4o_0" arrivalPos="492.80" arrivalSpeed="12.82" duration="106.00" routeLength="995.90" waitingTime="9.00" waitingCount="3" stopTime="0.00" timeLoss="44.22" rerouteNo="0" devices="tripinfo_SN_67" vType="car" speedFactor="1.15" vaporized=""/>
    <tripinfo id="SN_79" depart="79.00" departLane="3i_0" departPos="4.10" departSpeed="0.00" departDelay="0.00" arrival="180.00" arrivalLane="2o_0" arrivalPos="492.80" arrivalSpeed="9.63" duration="101.00" routeLength="990.53" waitingTime="5.00" waitingCount="1" stopTime="0.00" timeLoss="28.59" rerouteNo="0" devices="tripinfo_SN_79" vType="car" speedFactor="0.97" vaporized=""/>
    <tripinfo id="EW_100" depart="103.00" departLane="4i_0" departPos="4.10" departSpeed="0.00" departDelay="3.00" arrival="181.00" arrivalLane="3o_0" arrivalPos="492.80" arrivalSpeed="10.49" duration="78.00" routeLength="995.90" waitingTime="0.00" waitingCount="0" stopTime="0.00" timeLoss="9.03" rerouteNo="0" devices="tripinfo_EW_100" vType="car" speedFactor="1.03" vaporized=""/>
    <tripinfo id="SN_81" depart="81.00" departLane="3i_0" departPos="4.10" departSpeed="0.00" departDelay="0.00" arrival="182.00" arrivalLane="2o_0" arrivalPos="492.80" arrivalSpeed="12.27" duration="101.00" routeLength="990.53" waitingTime="6.00" waitingCount="3" stopTime="0.00" timeLoss="40.87" rerouteNo="0" devices="tripinfo_SN_81" vType="car" speedFactor="1.18" vaporized=""/>
    <tripinfo id="WE_85" depart="85.00" departLane="1i_0" departPos="10.10" departSpeed="0.00" departDelay="0.00" arrival="182.00" arrivalLane="4o_0" arrivalPos="492.80" arrivalSpeed="10.44" duration="97.00" routeLength="989.70" waitingTime="3.00" waitingCount="1" stopTime="0.00" timeLoss="22.36" rerouteNo="0" devices="tripinfo_WE_85" vType="truck" speedFactor="0.95" vaporized=""/>
    <tripinfo id="WE_107" depart="107.00" departLane="1i_0" departPos="4.10" departSpeed="0.00" departDelay="0.00" arrival="183.00" arrivalLane="3o_0" arrivalPos="492.80" arrivalSpeed="11.06" duration="76.00" routeLength="990.53" waitingTime="0.00" waitingCount="0" stopTime="0.00" timeLoss="11.00" rerouteNo="0" devices="tripinfo_WE_107" vType="car" speedFactor="1.09" vaporized=""/>
    <tripinfo id="EW_110" depart="110.00" departLane="4i_0" departPos="4.10" departSpeed="0.00" departDelay="0.00" arrival="189.00" arrivalLane="2o_0" arrivalPos="492.80" arrivalSpeed="11.24" duration="79.00" routeLength="995.70" waitingTime="0.00" waitingCount="0" stopTime="0.00" timeLoss="10.53" rerouteNo="0" devices="tripinfo_EW_110" vType="car" speedFactor="1.04" vaporized=""/>
    <tripinfo id="EW_101" depart="106.00" departLane="4i_0" departPos="4.10" departSpeed="0.00" departDelay="5.00" arrival="191.00" arrivalLane="3o_0" arrivalPos="492.80" arrivalSpeed="10.01" duration="85.00" routeLength="995.90" waitingTime="1.00" waitingCount="1" stopTime="0.00" timeLoss="11.00" rerouteNo="0" devices="tripinfo_EW_101" vType="car" speedFactor="0.96" vaporized=""/>
    <tripinfo id="SN_84" depart="87.00" departLane="3i_0" departPos="4.10" departSpeed="0.00" departDelay="3.00" arrival="192.00" arrivalLane="1o_0" arrivalPos="492.80" arrivalSpeed="11.36" duration="105.00" routeLength="995.70" waitingTime="9.00" waitingCount="3" stopTime="0.00" timeLoss="40.45" rerouteNo="0" devices="tripinfo_SN_84" vType="car" speedFactor="1.10" vaporized=""/>
    <tripinfo id="EW_112" depart="113.00" departLane="4i_0" departPos="4.10" departSpeed="0.00" departDelay="1.00" arrival="193.00" arrivalLane="3o_0" arrivalPos="492.80" arrivalSpeed="11.01" duration="80.00" routeLength="995.90" waitingTime="0.00" waitingCount="0" stopTime="0.00" timeLoss="8.70" rerouteNo="0" devices="tripinfo_EW_112" vType="car" speedFactor="1.00" vaporized=""/>
    <tripinfo id="SN_110" depart="110.00" departLane="3i_0" departPos="4.10" departSpeed="0.00" departDelay="0.00" arrival="194.00" arrivalLane="2o_0" arrivalPos="492.80" arrivalSpeed="11.40" duration="84.00" routeLength="990.53" waitingTime="4.00" waitingCount="1" stopTime="0.00" timeLoss="18.61" rerouteNo="0" devices="tripinfo_SN_110" vType="car" speedFactor="1.09" vaporized=""/>
    <tripinfo id="NS_109" depart="109.00" departLane="2i_0" departPos="4.10" departSpeed="0.00" departDelay="0.00" arrival="198.00" arrivalLane="1o_0" arrivalPos="492.80" arrivalSpeed="10.96" duration="89.00" routeLength="995.90" waitingTime="11.00" waitingCount="1" stopTime="0.00" timeLoss="20.47" rerouteNo="0" devices="tripinfo_NS_109" vType="car" speedFactor="1.04" vaporized=""/>
    <tripinfo id="WE_113" depart="113.00" departLane="1i_0" departPos="4.10" departSpeed="0.00" departDelay="0.00" arrival="207.00" arrivalLane="2o_0" arrivalPos="492.80" arrivalSpeed="9.25" duration="94.00" routeLength="995.90" waitingTime="2.00" waitingCount="1" stopTime="0.00" timeLoss="12.96" rerouteNo="0" devices="tripinfo_WE_113" vType="car" speedFactor="0.88" vaporized=""/>
    <tripinfo id="SN_112" depart="112.00" departLane="3i_0" departPos="4.10" departSpeed="0.00" departDelay="0.00" arrival="209.00" arrivalLane="4o_0" arrivalPos="492.80" arrivalSpeed="9.98" duration="97.00" routeLength="995.90" waitingTime="0.00" waitingCount="0" stopTime="0.00" timeLoss="18.53" rerouteNo="0" devices="tripinfo_SN_112" vType="car" speedFactor="0.90" vaporized=""/>
    <tripinfo id="NS_117" depart="117.00" departLane="2i_0" departPos="4.10" departSpeed="0.00" departDelay="0.00" arrival="214.00" arrivalLane="3o_0" arrivalPos="492.80" arrivalSpeed="11.01" duration="97.00" routeLength="995.70" waitingTime="13.00" waitingCount="1" stopTime="0.00" timeLoss="32.62" rerouteNo="0" devices="tripinfo_NS_117" vType="car" speedFactor="1.10" vaporized=""/>
    <tripinfo id="EW_115" depart="116.00" departLane="4i_0" departPos="4.10" departSpeed="0.00" departDelay="1.00" arrival="215.00" arrivalLane="2o_0" arrivalPos="492.80" arrivalSpeed="9.36" duration="99.00" routeLength="995.70" waitingTime="1.00" waitingCount="1" stopTime="0.00" timeLoss="15.89" rerouteNo="0" devices="tripinfo_EW_115" vType="car" speedFactor="0.85" vaporized=""/>
    <tripinfo id="WE_115" depart="116.00" departLane="1i_0" departPos="4.10" departSpeed="0.00" departDelay="1.00" arrival="218.00" arrivalLane="2o_0" arrivalPos="492.80" arrivalSpeed="8.44" duration="102.00" routeLength="995.90" waitingTime="3.00" waitingCount="2" stopTime="0.00" timeLoss="18.45" rerouteNo="0" devices="tripinfo_WE_115" vType="car" speedFactor="0.85" vaporized=""/>
    <tripinfo id="WE_116" depart="119.00" departLane="1i_0" departPos="4.10" departSpeed="0.00" departDelay="3.00" arrival="219.00" arrivalLane="2o_0" arrivalPos="492.80" arrivalSpeed="11.48" duration="100.00" routeLength="995.90" waitingTime="3.00" waitingCount="2" stopTime="0.00" timeLoss="39.61" rerouteNo="0" devices="tripinfo_WE_116" vType="car" speedFactor="1.17" vaporized=""/>
    <tripinfo id="SN_116" depart="117.00" departLane="3i_0" departPos="4.10" departSpeed="0.00" departDelay="1.00" arrival="221.00" arrivalLane="2o_0" arrivalPos="492.80" arrivalSpeed="10.85" duration="104.00" routeLength="990.53" waitingTime="4.00" waitingCount="2" stopTime="0.00" timeLoss="34.76" rerouteNo="0" devices="tripinfo_SN_116" vType="car" speedFactor="1.02" vaporized=""/>
    <tripinfo id="NS_129" depart="129.00" departLane="2i_0" departPos="4.10" departSpeed="0.00" departDelay="0.00" arrival="221.00" arrivalLane="1o_0" arrivalPos="492.80" arrivalSpeed="11.97" duration="92.00" routeLength="995.90" waitingTime="10.00" waitingCount="2" stopTime="0.00" timeLoss="25.91" rerouteNo="0" devices="tripinfo_NS_129" vType="car" speedFactor="1.08" vaporized=""/>
    <tripinfo id="SN_121" depart="121.00" departLane="3i_0" departPos="4.10" departSpeed="0.00" departDelay="0.00" arrival="222.00" arrivalLane="4o_0" arrivalPos="492.80" arrivalSpeed="10.91" duration="101.00" routeLength="995.90" waitingTime="2.00" waitingCount="1" stopTime="0.00" timeLoss="30.36" rerouteNo="0" devices="tripinfo_SN_121" vType="car" speedFactor="1.00" vaporized=""/>
    <tripinfo id="WE_122" depart="122.00" departLane="1i_0" departPos="4.10" departSpeed="0.00" departDelay="0.00" arrival="223.00" arrivalLane="2o_0" arrivalPos="492.80" arrivalSpeed="9.80" duration="101.00" routeLength="995.90" waitingTime="2.00" waitingCount="1" stopTime="0.00" timeLoss="29.83" rerouteNo="0" devices="tripinfo_WE_122" vType="car" speedFactor="1.00" vaporized=""/>
    <tripinfo id="SN_122" depart="124.00" departLane="3i_0" departPos="4.10" departSpeed="0.00" departDelay="2.00" arrival="233.00" arrivalLane="1o_0" arrivalPos="492.80" arrivalSpeed="9.72" duration="109.00" routeLength="995.70" waitingTime="2.00" waitingCount="2" stopTime="0.00" timeLoss="30.28" rerouteNo="0" devices="tripinfo_SN_122" vType="car" speedFactor="0.90" vaporized=""/>
    <tripinfo id="WE_125" depart="125.00" departLane="1i_0" departPos="4.10" departSpeed="0.00" departDelay="0.00" arrival="234.00" arrivalLane="4o_0" arrivalPos="492.80" arrivalSpeed="11.62" duration="109.00" routeLength="995.70" waitingTime="20.00" waitingCount="3" stopTime="0.00" timeLoss="46.74" rerouteNo="0" devices="tripinfo_WE_125" vType="car" speedFactor="1.14" vaporized=""/>
    <tripinfo id="EW_152" depart="152.00" departLane="4i_0" departPos="4.10" departSpeed="0.00" departDelay="0.00" arrival="235.00" arrivalLane="3o_0" arrivalPos="492.80" arrivalSpeed="10.87" duration="83.00" routeLength="995.90" waitingTime="3.00" waitingCount="1" stopTime="0.00" timeLoss="14.25" rerouteNo="0" devices="tripinfo_EW_152" vType="car" speedFactor="1.04" vaporized=""/>
    <tripinfo id="SN_142" depart="142.00" departLane="3i_0" departPos="4.10" departSpeed="0.00" departDelay="0.00" arrival="236.00" arrivalLane="1o_0" arrivalPos="492.80" arrivalSpeed="8.78" duration="94.00" routeLength="995.70" waitingTime="0.00" waitingCount="0" stopTime="0.00" timeLoss="16.14" rerouteNo="0" devices="tripinfo_SN_142" vType="car" speedFactor="0.91" vaporized=""/>
    <tripinfo id="NS_133" depart="133.00" departLane="2i_0" departPos="4.10" departSpeed="0.00" departDelay="0.00" arrival="238.00" arrivalLane="1o_0" arrivalPos="492.80" arrivalSpeed="10.88" duration="105.00" routeLength="995.90" waitingTime="7.00" waitingCount="2" stopTime="0.00" timeLoss="33.01" rerouteNo="0" devices="tripinfo_NS_133" vType="car" speedFactor="0.99" vaporized=""/>
    <tripinfo id="SN_153" depart="153.00" departLane="3i_0" departPos="10.10" departSpeed="0.00" departDelay="0.00" arrival="241.00" arrivalLane="2o_0" arrivalPos="492.80" arrivalSpeed="11.19" duration="88.00" routeLength="984.53" waitingTime="1.00" waitingCount="1" stopTime="0.00" timeLoss="18.48" rerouteNo="0" devices="tripinfo_SN_153" vType="truck" speedFactor="1.01" vaporized=""/>
    <tripinfo id="SN_157" depart="157.00" departLane="3i_0" departPos="4.10" departSpeed="0.00" departDelay="0.00" arrival="243.00" arrivalLane="2o_0" arrivalPos="492.80" arrivalSpeed="11.38" duration="86.00" routeLength="990.53" waitingTime="0.00" waitingCount="0" stopTime="0.00" timeLoss="19.27" rerouteNo="0" devices="tripinfo_SN_157" vType="car" speedFactor="1.06" vaporized=""/>
    <tripinfo id="NS_137" depart="137.00" departLane="2i_0" departPos="4.10" departSpeed="0.00" departDelay="0.00" arrival="247.00" arrivalLane="3o_0" arrivalPos="492.80" arrivalSpeed="8.62" duration="110.00" routeLength="995.70" waitingTime="3.00" waitingCount="2" stopTime="0.00" timeLoss="29.93" rerouteNo="0" devices="tripinfo_NS_137" vType="car" speedFactor="0.88" vaporized=""/>
    <tripinfo id="NS_144" depart="144.00" departLane="2i_0" departPos="4.10" departSpeed="0.00" departDelay="0.00" arrival="248.00" arrivalLane="4o_0" arrivalPos="492.80" arrivalSpeed="9.47" duration="104.00" routeLength="990.53" waitingTime="2.00" waitingCount="1" stopTime="0.00" timeLoss="26.44" rerouteNo="0" devices="tripinfo_NS_144" vType="car" speedFactor="0.91" vaporized=""/>
    <tripinfo id="EW_164" depart="164.00" departLane="4i_0" departPos="4.10" departSpeed="0.00" departDelay="0.00" arrival="248.00" arrivalLane="2o_0" arrivalPos="492.80" arrivalSpeed="10.86" duration="84.00" routeLength="995.70" waitingTime="0.00" waitingCount="0" stopTime="0.00" timeLoss="14.82" rerouteNo="0" devices="tripinfo_EW_164" vType="car" speedFactor="1.03" vaporized=""/>
    <tripinfo id="WE_126" depart="128.00" departLane="1i_0" departPos="4.10" departSpeed="0.00" departDelay="2.00" arrival="249.00" arrivalLane="4o_0" arrivalPos="492.80" arrivalSpeed="10.33" duration="121.00" routeLength="995.70" waitingTime="16.00" waitingCount="2" stopTime="0.00" timeLoss="51.99" rerouteNo="0" devices="tripinfo_WE_126" vType="car" speedFactor="1.02" vaporized=""/>
    <tripinfo id="NS_156" depart="156.00" departLane="2i_0" departPos="4.10" departSpeed="0.00" departDelay="0.00" arrival="254.00" arrivalLane="3o_0" arrivalPos="492.80" arrivalSpeed="9.88" duration="98.00" routeLength="995.70" waitingTime="3.00" waitingCount="2" stopTime="0.00" timeLoss="22.70" rerouteNo="0" devices="tripinfo_NS_156" vType="car" speedFactor="0.94" vaporized=""/>
    <tripinfo id="NS_159" depart="159.00" departLane="2i_0" departPos="4.10" departSpeed="0.00" departDelay="0.00" arrival="256.00" arrivalLane="3o_0" arrivalPos="492.80" arrivalSpeed="10.15" duration="97.00" routeLength="995.70" waitingTime="1.00" waitingCount="1" stopTime="0.00" timeLoss="22.90" rerouteNo="0" devices="tripinfo_NS_159" vType="car" speedFactor="0.96" vaporized=""/>
    <tripinfo id="NS_167" depart="167.00" departLane="2i_0" departPos="4.10" departSpeed="0.00" departDelay="0.00" arrival="256.00" arrivalLane="4o_0" arrivalPos="492.80" arrivalSpeed="10.80" duration="89.00" routeLength="990.53" waitingTime="0.00" waitingCount="0" stopTime="0.00" timeLoss="17.20" rerouteNo="0" devices="tripinfo_NS_167" vType="car" speedFactor="0.98" vaporized=""/>
    <tripinfo id="NS_174" depart="174.00" departLane="2i_0" departPos="4.10" departSpeed="0.00" departDelay="0.00" arrival="257.00" arrivalLane="1o_0" arrivalPos="492.80" arrivalSpeed="11.53" duration="83.00" routeLength="995.90" waitingTime="1.00" waitingCount="1" stopTime="0.00" timeLoss="17.97" rerouteNo="0" devices="tripinfo_NS_174" vType="car" speedFactor="1.09" vaporized=""/>
    <tripinfo id="WE_129" depart="131.00" departLane="1i_0" departPos="4.10" departSpeed="0.00" departDelay="2.00" arrival="260.00" arrivalLane="4o_0" arrivalPos="492.80" arrivalSpeed="10.21" duration="129.00" routeLength="995.70" waitingTime="22.00" waitingCount="2" stopTime="0.00" timeLoss="55.77" rerouteNo="0" devices="tripinfo_WE_129" vType="car" speedFactor="0.97" vaporized=""/>
    <tripinfo id="SN_161" depart="161.00" departLane="3i_0" departPos="4.10" departSpeed="0.00" departDelay="0.00" arrival="260.00" arrivalLane="2o_0" arrivalPos="492.80" arrivalSpeed="10.32" duration="99.00" routeLength="990.53" waitingTime="9.00" waitingCount="2" stopTime="0.00" timeLoss="26.84" rerouteNo="0" devices="tripinfo_SN_161" vType="car" speedFactor="0.98" vaporized=""/>
    <tripinfo id="NS_179" depart="180.00" departLane="2i_0" departPos="4.10" departSpeed="0.00" departDelay="1.00" arrival="264.00" arrivalLane="4o_0" arrivalPos="492.80" arrivalSpeed="10.65" duration="84.00" routeLength="990.53" waitingTime="0.00" waitingCount="0" stopTime="0.00" timeLoss="14.78" rerouteNo="0" devices="tripinfo_NS_179" vType="car" speedFactor="1.02" vaporized=""/>
    <tripinfo id="EW_175" depart="175.00" departLane="4i_0" departPos="10.10" departSpeed="0.00" departDelay="0.00" arrival="265.00" arrivalLane="3o_0" arrivalPos="492.80" arrivalSpeed="10.92" duration="90.00" routeLength="989.90" waitingTime="0.00" waitingCount="0" stopTime="0.00" timeLoss="20.79" rerouteNo="0" devices="tripinfo_EW_175" vType="truck" speedFactor="1.02" vaporized=""/>