<?xml version="1.0" encoding="UTF-8"?>

<!-- generated on 2024-05-04 18:06:50 by Eclipse SUMO sumo Version 1.19.0
<configuration xmlns:xsi="http://www.w3.org/2001/XMLSchema-instance" xsi:noNamespaceSchemaLocation="http://sumo.dlr.de/xsd/sumoConfiguration.xsd">

    <input>
        <net-file value="test5.net.xml"/>
        <route-files value="route_gen.rou.xml"/>
    </input>

    <output>
        <tripinfo-output value="tripinfo_epi304.xml"/>
    </output>

    <report>
        <no-warnings value="true"/>
    </report>

    <traci_server>
        <remote-port value="52947"/>
    </traci_server>

</configuration>
-->

<tripinfos xmlns:xsi="http://www.w3.org/2001/XMLSchema-instance" xsi:noNamespaceSchemaLocation="http://sumo.dlr.de/xsd/tripinfo_file.xsd">
    <tripinfo id="NS_0" depart="0.00" departLane="2i_0" departPos="4.10" departSpeed="0.00" departDelay="0.00" arrival="76.00" arrivalLane="1o_0" arrivalPos="492.80" arrivalSpeed="11.27" duration="76.00" routeLength="995.90" waitingTime="0.00" waitingCount="0" stopTime="0.00" timeLoss="9.07" rerouteNo="0" devices="tripinfo_NS_0" vType="car" speedFactor="1.06" vaporized=""/>
    <tripinfo id="SN_7" depart="7.00" departLane="3i_0" departPos="4.10" departSpeed="0.00" departDelay="0.00" arrival="84.00" arrivalLane="2o_0" arrivalPos="492.80" arrivalSpeed="10.96" duration="77.00" routeLength="990.53" waitingTime="0.00" waitingCount="0" stopTime="0.00" timeLoss="7.16" rerouteNo="0" devices="tripinfo_SN_7" vType="car" speedFactor="1.01" vaporized=""/>
    <tripinfo id="SN_13" depart="13.00" departLane="3i_0" departPos="4.10" departSpeed="0.00" departDelay="0.00" arrival="86.00" arrivalLane="2o_0" arrivalPos="492.80" arrivalSpeed="11.13" duration="73.00" routeLength="990.53" waitingTime="0.00" waitingCount="0" stopTime="0.00" timeLoss="7.45" rerouteNo="0" devices="tripinfo_SN_13" vType="car" speedFactor="1.08" vaporized=""/>
    <tripinfo id="NS_19" depart="19.00" departLane="2i_0" departPos="4.10" departSpeed="0.00" departDelay="0.00" arrival="103.00" arrivalLane="1o_0" arrivalPos="492.80" arrivalSpeed="10.19" duration="84.00" routeLength="995.90" waitingTime="1.00" waitingCount="1" stopTime="0.00" timeLoss="15.28" rerouteNo="0" devices="tripinfo_NS_19" vType="car" speedFactor="1.03" vaporized=""/>
    <tripinfo id="WE_4" depart="4.00" departLane="1i_0" departPos="4.10" departSpeed="0.00" departDelay="0.00" arrival="107.00" arrivalLane="3o_0" arrivalPos="492.80" arrivalSpeed="9.69" duration="103.00" routeLength="990.53" waitingTime="13.00" waitingCount="1" stopTime="0.00" timeLoss="28.01" rerouteNo="0" devices="tripinfo_WE_4" vType="car" speedFactor="0.94" vaporized=""/>
    <tripinfo id="NS_27" depart="29.00" departLane="2i_0" departPos="4.10" departSpeed="0.00" departDelay="2.00" arrival="118.00" arrivalLane="1o_0" arrivalPos="492.80" arrivalSpeed="11.48" duration="89.00" routeLength="995.90" waitingTime="0.00" waitingCount="0" stopTime="0.00" timeLoss="20.56" rerouteNo="0" devices="tripinfo_NS_27" vType="car" speedFactor="1.05" vaporized=""/>
    <tripinfo id="NS_26" depart="26.00" departLane="2i_0" departPos="4.10" departSpeed="0.00" departDelay="0.00" arrival="126.00" arrivalLane="3o_0" arrivalPos="492.80" arrivalSpeed="9.13" duration="100.00" routeLength="995.70" waitingTime="1.00" waitingCount="1" stopTime="0.00" timeLoss="14.51" rerouteNo="0" devices="tripinfo_NS_26" vType="car" speedFactor="0.83" vaporized=""/>
    <tripinfo id="WE_32" depart="32.00" departLane="1i_0" departPos="4.10" departSpeed="0.00" departDelay="0.00" arrival="129.00" arrivalLane="4o_0" arrivalPos="492.80" arrivalSpeed="9.84" duration="97.00" routeLength="995.70" waitingTime="4.00" waitingCount="2" stopTime="0.00" timeLoss="17.23" rerouteNo="0" devices="tripinfo_WE_32" vType="car" speedFactor="0.89" vaporized=""/>
    <tripinfo id="EW_38" depart="38.00" departLane="4i_0" departPos="4.10" departSpeed="0.00" departDelay="0.00" arrival="131.00" arrivalLane="3o_0" arrivalPos="492.80" arrivalSpeed="8.38" duration="93.00" routeLength="995.90" waitingTime="0.00" waitingCount="0" stopTime="0.00" timeLoss="10.24" rerouteNo="0" devices="tripinfo_EW_38" vType="car" speedFactor="0.86" vaporized=""/>
    <tripinfo id="EW_53" depart="53.00" departLane="4i_0" departPos="4.10" departSpeed="0.00" departDelay="0.00" arrival="133.00" arrivalLane="3o_0" arrivalPos="492.80" arrivalSpeed="12.01" duration="80.00" routeLength="995.90" waitingTime="1.00" waitingCount="1" stopTime="0.00" timeLoss="14.16" rerouteNo="0" devices="tripinfo_EW_53" vType="car" speedFactor="1.09" vaporized=""/>
    <tripinfo id="NS_55" depart="55.00" departLane="2i_0" departPos="4.10" departSpeed="0.00" departDelay="0.00" arrival="134.00" arrivalLane="1o_0" arrivalPos="492.80" arrivalSpeed="10.87" duration="79.00" routeLength="995.90" waitingTime="0.00" waitingCount="0" stopTime="0.00" timeLoss="9.87" rerouteNo="0" devices="tripinfo_NS_55" vType="car" speedFactor="1.03" vaporized=""/>
    <tripinfo id="WE_35" depart="35.00" departLane="1i_0" departPos="10.10" departSpeed="0.00" departDelay="0.00" arrival="141.00" arrivalLane="2o_0" arrivalPos="492.80" arrivalSpeed="10.49" duration="106.00" routeLength="989.90" waitingTime="10.00" waitingCount="2" stopTime="0.00" timeLoss="32.86" rerouteNo="0" devices="tripinfo_WE_35" vType="truck" speedFactor="0.97" vaporized=""/>
    <tripinfo id="WE_58" depart="58.00" departLane="1i_0" departPos="4.10" departSpeed="0.00" departDelay="0.00" arrival="143.00" arrivalLane="3o_0" arrivalPos="492.80" arrivalSpeed="11.11" duration="85.00" routeLength="990.53" waitingTime="0.00" waitingCount="0" stopTime="0.00" timeLoss="17.18" rerouteNo="0" devices="tripinfo_WE_58" vType="car" speedFactor="1.05" vaporized=""/>
    <tripinfo id="SN_58" depart="58.00" departLane="3i_0" departPos="10.10" departSpeed="0.00" departDelay="0.00" arrival="143.00" arrivalLane="1o_0" arrivalPos="492.80" arrivalSpeed="11.47" duration="85.00" routeLength="989.70" waitingTime="0.00" waitingCount="0" stopTime="0.00" timeLoss="17.42" rerouteNo="0" devices="tripinfo_SN_58" vType="truck" speedFactor="1.06" vaporized=""/>
    <tripinfo id="SN_65" depart="65.00" departLane="3i_0" departPos="4.10" departSpeed="0.00" departDelay="0.00" arrival="152.00" arrivalLane="4o_0" arrivalPos="492.80" arrivalSpeed="10.55" duration="87.00" routeLength="995.90" waitingTime="1.00" waitingCount="1" stopTime="0.00" timeLoss="15.44" rerouteNo="0" devices="tripinfo_SN_65" vType="car" speedFactor="0.99" vaporized=""/>
    <tripinfo id="SN_67" depart="68.00" departLane="3i_0" departPos="4.10" departSpeed="0.00" departDelay="1.00" arrival="157.00" arrivalLane="4o_0" arrivalPos="492.80" arrivalSpeed="9.96" duration="89.00" routeLength="995.90" waitingTime="0.00" waitingCount="0" stopTime="0.00" timeLoss="12.56" rerouteNo="0" devices="tripinfo_SN_67" vType="car" speedFactor="0.93" vaporized=""/>
    <tripinfo id="EW_69" depart="69.00" departLane="4i_0" departPos="4.10" departSpeed="0.00" departDelay="0.00" arrival="164.00" arrivalLane="2o_0" arrivalPos="492.80" arrivalSpeed="8.53" duration="95.00" routeLength="995.70" waitingTime="1.00" waitingCount="1" stopTime="0.00" timeLoss="13.99" rerouteNo="0" devices="tripinfo_EW_69" vType="car" speedFactor="0.88" vaporized=""/>
    <tripinfo id="WE_70" depart="70.00" departLane="1i_0" departPos="4.10" departSpeed="0.00" departDelay="0.00" arrival="164.00" arrivalLane="4o_0" arrivalPos="492.80" arrivalSpeed="10.17" duration="94.00" routeLength="995.70" waitingTime="6.00" waitingCount="1" stopTime="0.00" timeLoss="18.02" rerouteNo="0" devices="tripinfo_WE_70" vType="car" speedFactor="0.94" vaporized=""/>
    <tripinfo id="NS_69" depart="69.00" departLane="2i_0" departPos="10.10" departSpeed="0.00" departDelay="0.00" arrival="166.00" arrivalLane="1o_0" arrivalPos="492.80" arrivalSpeed="10.56" duration="97.00" routeLength="989.90" waitingTime="2.00" waitingCount="2" stopTime="0.00" timeLoss="23.70" rerouteNo="0" devices="tripinfo_NS_69" vType="truck" speedFactor="0.97" vaporized=""/>
    <tripinfo id="NS_81" depart="81.00" departLane="2i_0" departPos="4.10" departSpeed="0.00" departDelay="0.00" arrival="168.00" arrivalLane="1o_0" arrivalPos="492.80" arrivalSpeed="11.63" duration="87.00" routeLength="995.90" waitingTime="1.00" waitingCount="1" stopTime="0.00" timeLoss="25.25" rerouteNo="0" devices="tripinfo_NS_81" vType="car" speedFactor="1.16" vaporized=""/>
    <tripinfo id="SN_86" depart="86.00" departLane="3i_0" departPos="4.10" departSpeed="0.00" departDelay="0.00" arrival="171.00" arrivalLane="4o_0" arrivalPos="492.80" arrivalSpeed="10.09" duration="85.00" routeLength="995.90" waitingTime="0.00" waitingCount="0" stopTime="0.00" timeLoss="12.00" rerouteNo="0" devices="tripinfo_SN_86" vType="car" speedFactor="0.97" vaporized=""/>
    <tripinfo id="NS_86" depart="86.00" departLane="2i_0" departPos="4.10" departSpeed="0.00" departDelay="0.00" arrival="173.00" arrivalLane="1o_0" arrivalPos="492.80" arrivalSpeed="10.58" duration="87.00" routeLength="995.90" waitingTime="0.00" waitingCount="0" stopTime="0.00" timeLoss="16.61" rerouteNo="0" devices="tripinfo_NS_86" vType="car" speedFactor="1.01" vaporized=""/>
    <tripinfo id="EW_95" depart="95.00" departLane="4i_0" departPos="4.10" departSpeed="0.00" departDelay="0.00" arrival="174.00" arrivalLane="3o_0" arrivalPos="492.80" arrivalSpeed="11.57" duration="79.00" routeLength="995.90" waitingTime="1.00" waitingCount="1" stopTime="0.00" timeLoss="16.32" rerouteNo="0" devices="tripinfo_EW_95" vType="car" speedFactor="1.13" vaporized=""/>
    <tripinfo id="EW_84" depart="84.00" departLane="4i_0" departPos="4.10" departSpeed="0.00" departDelay="0.00" arrival="176.00" arrivalLane="1o_0" arrivalPos="492.80" arrivalSpeed="11.02" duration="92.00" routeLength="990.53" waitingTime="9.00" waitingCount="1" stopTime="0.00" timeLoss="22.36" rerouteNo="0" devices="tripinfo_EW_84" vType="car" speedFactor="1.02" vaporized=""/>
    <tripinfo id="NS_87" depart="88.00" departLane="2i_0" departPos="4.10" departSpeed="0.00" departDelay="1.00" arrival="187.00" arrivalLane="3o_0" arrivalPos="492.80" arrivalSpeed="9.30" duration="99.00" routeLength="995.70" waitingTime="1.00" waitingCount="1" stopTime="0.00" timeLoss="19.59" rerouteNo="0" devices="tripinfo_NS_87" vType="car" speedFactor="0.89" vaporized=""/>
    <tripinfo id="SN_94" depart="94.00" departLane="3i_0" departPos="4.10" departSpeed="0.00" departDelay="0.00" arrival="187.00" arrivalLane="1o_0" arrivalPos="492.80" arrivalSpeed="9.48" duration="93.00" routeLength="995.70" waitingTime="2.00" waitingCount="1" stopTime="0.00" timeLoss="15.79" rerouteNo="0" devices="tripinfo_SN_94" vType="car" speedFactor="0.92" vaporized=""/>
    <tripinfo id="WE_124" depart="124.00" departLane="1i_0" departPos="4.10" departSpeed="0.00" departDelay="0.00" arrival="194.00" arrivalLane="2o_0" arrivalPos="492.80" arrivalSpeed="12.92" duration="70.00" routeLength="995.90" waitingTime="0.00" waitingCount="0" stopTime="0.00" timeLoss="9.25" rerouteNo="0" devices="tripinfo_WE_124" vType="car" speedFactor="1.17" vaporized=""/>
    <tripinfo id="NS_94" depart="94.00" departLane="2i_0" departPos="4.10" departSpeed="0.00" departDelay="0.00" arrival="195.00" arrivalLane="1o_0" arrivalPos="492.80" arrivalSpeed="8.57" duration="101.00" routeLength="995.90" waitingTime="1.00" waitingCount="1" stopTime="0.00" timeLoss="20.16" rerouteNo="0" devices="tripinfo_NS_94" vType="car" speedFactor="0.87" vaporized=""/>
    <tripinfo id="NS_99" depart="99.00" departLane="2i_0" departPos="4.10" departSpeed="0.00" departDelay="0.00" arrival="196.00" arrivalLane="4o_0" arrivalPos="492.80" arrivalSpeed="10.12" duration="97.00" routeLength="990.53" waitingTime="2.00" waitingCount="2" stopTime="0.00" timeLoss="21.18" rerouteNo="0" devices="tripinfo_NS_99" vType="car" speedFactor="0.93" vaporized=""/>
    <tripinfo id="NS_117" depart="117.00" departLane="2i_0" departPos="4.10" departSpeed="0.00" departDelay="0.00" arrival="197.00" arrivalLane="1o_0" arrivalPos="492.80" arrivalSpeed="12.62" duration="80.00" routeLength="995.90" waitingTime="1.00" waitingCount="1" stopTime="0.00" timeLoss="18.45" rerouteNo="0" devices="tripinfo_NS_117" vType="car" speedFactor="1.15" vaporized=""/>
    <tripinfo id="WE_92" depart="92.00" departLane="1i_0" departPos="4.10" departSpeed="0.00" departDelay="0.00" arrival="199.00" arrivalLane="3o_0" arrivalPos="492.80" arrivalSpeed="8.63" duration="107.00" routeLength="990.53" waitingTime="6.00" waitingCount="1" stopTime="0.00" timeLoss="21.76" rerouteNo="0" devices="tripinfo_WE_92" vType="car" speedFactor="0.83" vaporized=""/>
    <tripinfo id="WE_95" depart="95.00" departLane="1i_0" departPos="4.10" departSpeed="0.00" departDelay="0.00" arrival="201.00" arrivalLane="3o_0" arrivalPos="492.80" arrivalSpeed="9.35" duration="106.00" routeLength="990.53" waitingTime="6.00" waitingCount="1" stopTime="0.00" timeLoss="31.54" rerouteNo="0" devices="tripinfo_WE_95" vType="car" speedFactor="0.95" vaporized=""/>
    <tripinfo id="NS_102" depart="102.00" departLane="2i_0" departPos="4.10" departSpeed="0.00" departDelay="0.00" arrival="203.00" arrivalLane="3o_0" arrivalPos="492.80" arrivalSpeed="12.55" duration="101.00" routeLength="995.70" waitingTime="1.00" waitingCount="1" stopTime="0.00" timeLoss="40.25" rerouteNo="0" devices="tripinfo_NS_102" vType="car" speedFactor="1.18" vaporized=""/>
    <tripinfo id="NS_119" depart="120.00" departLane="2i_0" departPos="4.10" departSpeed="0.00" departDelay="1.00" arrival="208.00" arrivalLane="1o_0" arrivalPos="492.80" arrivalSpeed="10.15" duration="88.00" routeLength="995.90" waitingTime="1.00" waitingCount="1" stopTime="0.00" timeLoss="17.01" rerouteNo="0" devices="tripinfo_NS_119" vType="car" speedFactor="1.01" vaporized=""/>
    <tripinfo id="WE_130" depart="130.00" departLane="1i_0" departPos="4.10" departSpeed="0.00" departDelay="0.00" arrival="209.00" arrivalLane="3o_0" arrivalPos="492.80" arrivalSpeed="10.20" duration="79.00" routeLength="990.53" waitingTime="0.00" waitingCount="0" stopTime="0.00" timeLoss="7.98" rerouteNo="0" devices="tripinfo_WE_130" vType="car" speedFactor="0.99" vaporized=""/>
    <tripinfo id="SN_137" depart="137.00" departLane="3i_0" departPos="10.10" departSpeed="0.00" departDelay="0.00" arrival="220.00" arrivalLane="4o_0" arrivalPos="492.80" arrivalSpeed="11.02" duration="83.00" routeLength="989.90" waitingTime="0.00" waitingCount="0" stopTime="0.00" timeLoss="12.64" rerouteNo="0" devices="tripinfo_SN_137" vType="truck" speedFactor="1.01" vaporized=""/>
    <tripinfo id="SN_146" depart="148.00" departLane="3i_0" departPos="4.10" departSpeed="0.00" departDelay="2.00" arrival="221.00" arrivalLane="2o_0" arrivalPos="492.80" arrivalSpeed="11.66" duration="73.00" routeLength="990.53" waitingTime="0.00" waitingCount="0" stopTime="0.00" timeLoss="8.61" rerouteNo="0" devices="tripinfo_SN_146" vType="car" speedFactor="1.09" vaporized=""/>
    <tripinfo id="SN_145" depart="145.00" departLane="3i_0" departPos="4.10" departSpeed="0.00" departDelay="0.00" arrival="223.00" arrivalLane="4o_0" arrivalPos="492.80" arrivalSpeed="10.79" duration="78.00" routeLength="995.90" waitingTime="0.00" waitingCount="0" stopTime="0.00" timeLoss="8.85" rerouteNo="0" devices="tripinfo_SN_145" vType="car" speedFactor="1.03" vaporized=""/>
    <tripinfo id="SN_148" depart="151.00" departLane="3i_0" departPos="4.10" departSpeed="0.00" departDelay="3.00" arrival="227.00" arrivalLane="2o_0" arrivalPos="492.80" arrivalSpeed="11.52" duration="76.00" routeLength="990.53" waitingTime="0.00" waitingCount="0" stopTime="0.00" timeLoss="7.53" rerouteNo="0" devices="tripinfo_SN_148" vType="car" speedFactor="1.04" vaporized=""/>
    <tripinfo id="EW_140" depart="140.00" departLane="4i_0" departPos="4.10" departSpeed="0.00" departDelay="0.00" arrival="228.00" arrivalLane="2o_0" arrivalPos="492.80" arrivalSpeed="12.01" duration="88.00" routeLength="995.70" waitingTime="9.00" waitingCount="1" stopTime="0.00" timeLoss="23.82" rerouteNo="0" devices="tripinfo_EW_140" vType="car" speedFactor="1.10" vaporized=""/>
    <tripinfo id="EW_150" depart="150.00" departLane="4i_0" departPos="4.10" departSpeed="0.00" departDelay="0.00" arrival="229.00" arrivalLane="1o_0" arrivalPos="492.80" arrivalSpeed="11.44" duration="79.00" routeLength="990.53" waitingTime="2.00" waitingCount="1" stopTime="0.00" timeLoss="14.37" rerouteNo="0" devices="tripinfo_EW_150" vType="car" speedFactor="1.09" vaporized=""/>
    <tripinfo id="NS_146" depart="146.00" departLane="2i_0" departPos="10.10" departSpeed="0.00" departDelay="0.00" arrival="237.00" arrivalLane="3o_0" arrivalPos="492.80" arrivalSpeed="10.77" duration="91.00" routeLength="989.70" waitingTime="0.00" waitingCount="0" stopTime="0.00" timeLoss="18.41" rerouteNo="0" devices="tripinfo_NS_146" vType="truck" speedFactor="0.98" vaporized=""/>
    <tripinfo id="EW_151" depart="154.00" departLane="4i_0" departPos="10.10" departSpeed="0.00" departDelay="3.00" arrival="237.00" arrivalLane="1o_0" arrivalPos="492.80" arrivalSpeed="10.79" duration="83.00" routeLength="984.53" waitingTime="0.00" waitingCount="0" stopTime="0.00" timeLoss="12.79" rerouteNo="0" devices="tripinfo_EW_151" vType="truck" speedFactor="1.00" vaporized=""/>
    <tripinfo id="WE_139" depart="143.00" departLane="1i_0" departPos="4.10" departSpeed="0.00" departDelay="4.00" arrival="238.00" arrivalLane="2o_0" arrivalPos="492.80" arrivalSpeed="12.39" duration="95.00" routeLength="995.90" waitingTime="15.00" waitingCount="3" stopTime="0.00" timeLoss="34.75" rerouteNo="0" devices="tripinfo_WE_139" vType="car" speedFactor="1.18" vaporized=""/>
    <tripinfo id="WE_138" depart="138.00" departLane="1i_0" departPos="4.10" departSpeed="0.00" departDelay="0.00" arrival="239.00" arrivalLane="4o_0" arrivalPos="492.80" arrivalSpeed="10.18" duration="101.00" routeLength="995.70" waitingTime="13.00" waitingCount="2" stopTime="0.00" timeLoss="28.28" rerouteNo="0" devices="tripinfo_WE_138" vType="car" speedFactor="0.97" vaporized=""/>
    <tripinfo id="SN_151" depart="153.00" departLane="3i_0" departPos="4.10" departSpeed="0.00" departDelay="2.00" arrival="245.00" arrivalLane="4o_0" arrivalPos="492.80" arrivalSpeed="9.81" duration="92.00" routeLength="995.90" waitingTime="1.00" waitingCount="1" stopTime="0.00" timeLoss="13.60" rerouteNo="0" devices="tripinfo_SN_151" vType="car" speedFactor="0.90" vaporized=""/>
    <tripinfo id="EW_175" depart="175.00" departLane="4i_0" departPos="4.10" departSpeed="0.00" departDelay="0.00" arrival="248.00" arrivalLane="3o_0" arrivalPos="492.80" arrivalSpeed="12.07" duration="73.00" routeLength="995.90" waitingTime="0.00" waitingCount="0" stopTime="0.00" timeLoss="8.01" rerouteNo="0" devices="tripinfo_EW_175" vType="car" speedFactor="1.10" vaporized=""/>
    <tripinfo id="NS_160" depart="160.00" departLane="2i_0" departPos="4.10" departSpeed="0.00" departDelay="0.00" arrival="252.00" arrivalLane="1o_0" arrivalPos="492.80" arrivalSpeed="9.44" duration="92.00" routeLength="995.90" waitingTime="0.00" waitingCount="0" stopTime="0.00" timeLoss="9.11" rerouteNo="0" devices="tripinfo_NS_160" vType="car" speedFactor="0.85" vaporized=""/>
    <tripinfo id="EW_152" depart="157.00" departLane="4i_0" departPos="4.10" departSpeed="0.00" departDelay="5.00" arrival="255.00" arrivalLane="2o_0" arrivalPos="492.80" arrivalSpeed="8.92" duration="98.00" routeLength="995.70" waitingTime="1.00" waitingCount="1" stopTime="0.00" timeLoss="17.47" rerouteNo="0" devices="tripinfo_EW_152" vType="car" speedFactor="0.88" vaporized=""/>
    <tripinfo id="EW_157" depart="161.00" departLane="4i_0" departPos="4.10" departSpeed="0.00" departDelay="4.00" arrival="259.00" arrivalLane="2o_0" arrivalPos="492.80" arrivalSpeed="9.32" duration="98.00" routeLength="995.70" waitingTime="0.00" waitingCount="0" stopTime="0.00" timeLoss="14.56" rerouteNo="0" devices="tripinfo_EW_157" vType="car" speedFactor="0.85" vaporized=""/>
    <tripinfo id="NS_185" depart="185.00" departLane="2i_0" departPos="4.10" departSpeed="0.00" departDelay="0.00" arrival="262.00" arrivalLane="1o_0" arrivalPos="492.80" arrivalSpeed="11.56" duration="77.00" routeLength="995.90" waitingTime="0.00" waitingCount="0" stopTime="0.00" timeLoss="15.17" rerouteNo="0" devices="tripinfo_NS_185" vType="car" speedFactor="1.14" vaporized=""/>
    <tripinfo id="NS_169" depart="169.00" departLane="2i_0" departPos="10.10" departSpeed="0.00" departDelay="0.00" arrival="263.00" arrivalLane="3o_0" arrivalPos="492.80" arrivalSpeed="10.83" duration="94.00" routeLength="989.70" waitingTime="2.00" waitingCount="1" stopTime="0.00" timeLoss="23.61" rerouteNo="0" devices="tripinfo_NS_169" vType="truck" speedFactor="1.01" vaporized=""/>
    <tripinfo id="WE_141" depart="145.00" departLane="1i_0" departPos="4.10" departSpeed="0.00" departDelay="4.00" arrival="264.00" arrivalLane="2o_0" arrivalPos="492.80" arrivalSpeed="9.21" duration="119.00" routeLength="995.90" waitingTime="14.00" waitingCount="3" stopTime="0.00" timeLoss="40.12" rerouteNo="0" devices="tripinfo_WE_141" vType="car" speedFactor="0.90" vaporized=""/>
    <tripinfo id="EW_178" depart="178.00" departLane="4i_0" departPos="4.10" departSpeed="0.00" departDelay="0.00" arrival="266.00" arrivalLane="3o_0" arrivalPos="492.80" arrivalSpeed="10.49" duration="88.00" routeLength="995.90" waitingTime="4.00" waitingCount="1" stopTime="0.00" timeLoss="17.60" rerouteNo="0" devices="tripinfo_EW_178" vType="car" speedFactor="1.00" vaporized=""/>
    <tripinfo id="SN_199" depart="199.00" departLane="3i_0" departPos="4.10" departSpeed="0.00" departDelay="0.00" arrival="271.00" arrivalLane="4o_0" arrivalPos="492.80" arrivalSpeed="12.37" duration="72.00" routeLength="995.90" waitingTime="0.00" waitingCount="0" stopTime="0.00" timeLoss="8.13" rerouteNo="0" devices="tripinfo_SN_199" vType="car" speedFactor="1.12" vaporized=""/>
    <tripinfo id="WE_150" depart="150.00" departLane="1i_0" departPos="4.10" departSpeed="0.00" departDelay="0.00" arrival="272.00" arrivalLane="3o_0" arrivalPos="492.80" arrivalSpeed="10.84" duration="122.00" routeLength="990.53" waitingTime="21.00" waitingCount="6" stopTime="0.00" timeLoss="54.22" rerouteNo="0" devices="tripinfo_WE_150" vType="car" speedFactor="1.04" vaporized=""/>
    <tripinfo id="WE_168" depart="168.00" departLane="1i_0" departPos="4.10" departSpeed="0.00" departDelay="0.00" arrival="272.00" arrivalLane="2o_0" arrivalPos="492.80" arrivalSpeed="12.17" duration="104.00" routeLength="995.90" waitingTime="16.00" waitingCount="4" stopTime="0.00" timeLoss="42.92" rerouteNo="0" devices="tripinfo_WE_168" vType="car" speedFactor="1.17" vaporized=""/>
    <tripinfo id="NS_194" depart="194.00" departLane="2i_0" departPos="4.10" departSpeed="0.00" departDelay="0.00" arrival="282.00" arrivalLane="4o_0" arrivalPos="492.80" arrivalSpeed="10.70" duration="88.00" routeLength="990.53" waitingTime="2.00" waitingCount="2" stopTime="0.00" timeLoss="15.29" rerouteNo="0" devices="tripinfo_NS_194" vType="car" speedFactor="0.97" vaporized=""/>
    <tripinfo id="WE_183" depart="183.00" departLane="1i_0" departPos="4.10" departSpeed="0.00" departDelay="0.00" arrival="289.00" arrivalLane="4o_0" arrivalPos="492.80" arrivalSpeed="10.02" duration="106.00" routeLength="995.70" waitingTime="13.00" waitingCount="4" stopTime="0.00" timeLoss="34.59" rerouteNo="0" devices="tripinfo_WE_183" vType="car" speedFactor="1.00" vaporized=""/>
    <tripinfo id="WE_187" depart="190.00" departLane="1i_0" departPos="4.10" departSpeed="0.00" departDelay="3.00" arrival="292.00" arrivalLane="3o_0" arrivalPos="492.80" arrivalSpeed="11.18" duration="102.00" routeLength="990.53" waitingTime="4.00" waitingCount="2" stopTime="0.00" timeLoss="32.41" rerouteNo="0" devices="tripinfo_WE_187" vType="car" speedFactor="1.02" vaporized=""/>
    <tripinfo id="EW_209" depart="209.00" departLane="4i_0" departPos="10.10" departSpeed="0.00" departDelay="0.00" arrival="294.00" arrivalLane="3o_0" arrivalPos="492.80" arrivalSpeed="11.26" duration="85.00" routeLength="989.90" waitingTime="0.00" waitingCount="0" stopTime="0.00" timeLoss="15.76" rerouteNo="0" devices="tripinfo_EW_209" vType="truck" speedFactor="1.02" vaporized=""/>
    <tripinfo id="WE_184" depart="187.00" departLane="1i_0" departPos="4.10" departSpeed="0.00" departDelay="3.00" arrival="296.00" arrivalLane="4o_0" arrivalPos="492.80" arrivalSpeed="9.11" duration="109.00" routeLength="995.70" waitingTime="5.00" waitingCount="2" stopTime="0.00" timeLoss="30.49" rerouteNo="0" devices="tripinfo_WE_184" vType="car" speedFactor="0.90" vaporized=""/>
    <tripinfo id="SN_207" depart="207.00" departLane="3i_0" departPos="4.10" departSpeed="0.00" departDelay="0.00" arrival="299.00" arrivalLane="4o_0" arrivalPos="492.80" arrivalSpeed="9.67" duration="92.00" routeLength="995.90" waitingTime="0.00" waitingCount="0" stopTime="0.00" timeLoss="13.40" rerouteNo="0" devices="tripinfo_SN_207" vType="car" speedFactor="0.91" vaporized=""/>
    <tripinfo id="EW_214" depart="214.00" departLane="4i_0" departPos="4.10" departSpeed="0.00" departDelay="0.00" arrival="299.00" arrivalLane="3o_0" arrivalPos="492.80" arrivalSpeed="9.83" duration="85.00" routeLength="995.90" waitingTime="0.00" waitingCount="0" stopTime="0.00" timeLoss="11.67" rerouteNo="0" devices="tripinfo_EW_214" vType="car" speedFactor="0.97" vaporized=""/>
    <tripinfo id="SN_208" depart="210.00" departLane="3i_0" departPos="4.10" departSpeed="0.00" departDelay="2.00" arrival="300.00" arrivalLane="2o_0" arrivalPos="492.80" arrivalSpeed="9.43" duration="90.00" routeLength="990.53" waitingTime="0.00" waitingCount="0" stopTime="0.00" timeLoss="12.78" rerouteNo="0" devices="tripinfo_SN_208" vType="car" speedFactor="0.91" vaporized=""/>
    <tripinfo id="WE_197" depart="197.00" departLane="1i_0" departPos="4.10" departSpeed="0.00" departDelay="0.00" arrival="301.00" arrivalLane="3o_0" arrivalPos="492.80" arrivalSpeed="11.10" duration="104.00" routeLength="990.53" waitingTime="9.00" waitingCount="2" stopTime="0.00" timeLoss="38.37" rerouteNo="0" devices="tripinfo_WE_197" vType="car" speedFactor="1.08" vaporized=""/>
    <tripinfo id="SN_217" depart="217.00" departLane="3i_0" departPos="4.10" departSpeed="0.00" departDelay="0.00" arrival="301.00" arrivalLane="4o_0" arrivalPos="492.80" arrivalSpeed="10.58" duration="84.00" routeLength="995.90" waitingTime="0.00" waitingCount="0" stopTime="0.00" timeLoss="16.20" rerouteNo="0" devices="tripinfo_SN_217" vType="car" speedFactor="1.06" vaporized=""/>
    <tripinfo id="WE_200" depart="200.00" departLane="1i_0" departPos="4.10" departSpeed="0.00" departDelay="0.00" arrival="306.00" arrivalLane="2o_0" arrivalPos="492.80" arrivalSpeed="10.28" duration="106.00" routeLength="995.90" waitingTime="7.00" waitingCount="2" stopTime="0.00" timeLoss="36.11" rerouteNo="0" devices="tripinfo_WE_200" vType="car" speedFactor="1.02" vaporized=""/>
    <tripinfo id="EW_227" depart="227.00" departLane="4i_0" departPos="4.10" departSpeed="0.00" departDelay="0.00" arrival="312.00" arrivalLane="2o_0" arrivalPos="492.80" arrivalSpeed="10.08" duration="85.00" routeLength="995.70" waitingTime="0.00" waitingCount="0" stopTime="0.00" timeLoss="10.82" rerouteNo="0" devices="tripinfo_EW_227" vType="car" speedFactor="0.96" vaporized=""/>
    <tripinfo id="WE_202" depart="203.00" departLane="1i_0" departPos="4.10" departSpeed="0.00" departDelay="1.00" arrival="316.00" arrivalLane="3o_0" arrivalPos="492.80" arrivalSpeed="10.58" duration="113.00" routeLength="990.53" waitingTime="9.00" waitingCount="3" stopTime="0.00" timeLoss="41.67" rerouteNo="0" devices="tripinfo_WE_202" vType="car" speedFactor="0.99" vaporized=""/>
    <tripinfo id="SN_244" depart="244.00" departLane="3i_0" departPos="4.10" departSpeed="0.00" departDelay="0.00" arrival="316.00" arrivalLane="2o_0" arrivalPos="492.80" arrivalSpeed="11.91" duration="72.00" routeLength="990.53" waitingTime="0.00" waitingCount="0" stopTime="0.00" timeLoss="10.23" rerouteNo="0" devices="tripinfo_SN_244" vType="car" speedFactor="1.15" vaporized=""/>
    <tripinfo id="SN_228" depart="228.00" departLane="3i_0" departPos="10.10" departSpeed="0.00" departDelay="0.00" arrival="318.00" arrivalLane="1o_0" arrivalPos="492.80" arrivalSpeed="11.00" duration="90.00" routeLength="989.70" waitingTime="0.00" waitingCount="0" stopTime="0.00" timeLoss="18.91" rerouteNo="0" devices="tripinfo_SN_228" vType="truck" speedFactor="0.99" vaporized=""/>
    <tripinfo id="NS_231" depart="231.00" departLane="2i_0" departPos="4.10" departSpeed="0.00" departDelay="0.00" arrival="320.00" arrivalLane="3o_0" arrivalPos="492.80" arrivalSpeed="11.03" duration="89.00" routeLength="995.70" waitingTime="4.00" waitingCount="1" stopTime="0.00" timeLoss="20.64" rerouteNo="0" devices="tripinfo_NS_231" vType="car" speedFactor="1.03" vaporized=""/>
    <tripinfo id="SN_235" depart="237.00" departLane="3i_0" departPos="4.10" departSpeed="0.00" departDelay="2.00" arrival="320.00" arrivalLane="1o_0" arrivalPos="492.80" arrivalSpeed="11.33" duration="83.00" routeLength="995.70" waitingTime="0.00" waitingCount="0" stopTime="0.00" timeLoss="17.93" rerouteNo="0" devices="tripinfo_SN_235" vType="car" speedFactor="1.09" vaporized=""/>
    <tripinfo id="NS_236" depart="238.00" departLane="2i_0" departPos="10.10" departSpeed="0.00" departDelay="2.00" arrival="326.00" arrivalLane="1o_0" arrivalPos="492.80" arrivalSpeed="10.91" duration="88.00" routeLength="989.90" waitingTime="0.00" waitingCount="0" stopTime="0.00" timeLoss="17.38" rerouteNo="0" devices="tripinfo_NS_236" vType="truck" speedFactor="1.00" vaporized=""/>
    <tripinfo id="WE_203" depart="208.00" departLane="1i_0" departPos="4.10" departSpeed="0.00" departDelay="5.00" arrival="330.00" arrivalLane="3o_0" arrivalPos="492.80" arrivalSpeed="9.31" duration="122.00" routeLength="990.53" waitingTime="10.00" waitingCount="4" stopTime="0.00" timeLoss="46.84" rerouteNo="0" devices="tripinfo_WE_203" vType="car" speedFactor="0.94" vaporized=""/>