<?xml version="1.0" encoding="UTF-8"?>

<!-- generated on 2024-05-04 19:07:38 by Eclipse SUMO sumo Version 1.19.0
<configuration xmlns:xsi="http://www.w3.org/2001/XMLSchema-instance" xsi:noNamespaceSchemaLocation="http://sumo.dlr.de/xsd/sumoConfiguration.xsd">

    <input>
        <net-file value="test5.net.xml"/>
        <route-files value="route_gen.rou.xml"/>
    </input>

    <output>
        <tripinfo-output value="tripinfo_epi508.xml"/>
    </output>

    <report>
        <no-warnings value="true"/>
    </report>

    <traci_server>
        <remote-port value="47781"/>
    </traci_server>

</configuration>
-->

<tripinfos xmlns:xsi="http://www.w3.org/2001/XMLSchema-instance" xsi:noNamespaceSchemaLocation="http://sumo.dlr.de/xsd/tripinfo_file.xsd">
    <tripinfo id="SN_2" depart="2.00" departLane="3i_0" departPos="4.10" departSpeed="0.00" departDelay="0.00" arrival="78.00" arrivalLane="2o_0" arrivalPos="492.80" arrivalSpeed="11.68" duration="76.00" routeLength="990.53" waitingTime="1.00" waitingCount="1" stopTime="0.00" timeLoss="9.52" rerouteNo="0" devices="tripinfo_SN_2" vType="car" speedFactor="1.06" vaporized=""/>
    <tripinfo id="WE_10" depart="10.00" departLane="1i_0" departPos="4.10" departSpeed="0.00" departDelay="0.00" arrival="84.00" arrivalLane="2o_0" arrivalPos="492.80" arrivalSpeed="11.01" duration="74.00" routeLength="995.90" waitingTime="0.00" waitingCount="0" stopTime="0.00" timeLoss="8.61" rerouteNo="0" devices="tripinfo_WE_10" vType="car" speedFactor="1.08" vaporized=""/>
    <tripinfo id="EW_9" depart="9.00" departLane="4i_0" departPos="4.10" departSpeed="0.00" departDelay="0.00" arrival="89.00" arrivalLane="2o_0" arrivalPos="492.80" arrivalSpeed="10.97" duration="80.00" routeLength="995.70" waitingTime="0.00" waitingCount="0" stopTime="0.00" timeLoss="10.03" rerouteNo="0" devices="tripinfo_EW_9" vType="car" speedFactor="1.01" vaporized=""/>
    <tripinfo id="NS_6" depart="6.00" departLane="2i_0" departPos="10.10" departSpeed="0.00" departDelay="0.00" arrival="93.00" arrivalLane="4o_0" arrivalPos="492.80" arrivalSpeed="10.70" duration="87.00" routeLength="984.53" waitingTime="0.00" waitingCount="0" stopTime="0.00" timeLoss="14.52" rerouteNo="0" devices="tripinfo_NS_6" vType="truck" speedFactor="0.97" vaporized=""/>
    <tripinfo id="EW_17" depart="17.00" departLane="4i_0" departPos="4.10" departSpeed="0.00" departDelay="0.00" arrival="94.00" arrivalLane="1o_0" arrivalPos="492.80" arrivalSpeed="11.35" duration="77.00" routeLength="990.53" waitingTime="0.00" waitingCount="0" stopTime="0.00" timeLoss="8.07" rerouteNo="0" devices="tripinfo_EW_17" vType="car" speedFactor="1.03" vaporized=""/>
    <tripinfo id="EW_18" depart="20.00" departLane="4i_0" departPos="4.10" departSpeed="0.00" departDelay="2.00" arrival="95.00" arrivalLane="3o_0" arrivalPos="492.80" arrivalSpeed="11.57" duration="75.00" routeLength="995.90" waitingTime="0.00" waitingCount="0" stopTime="0.00" timeLoss="7.52" rerouteNo="0" devices="tripinfo_EW_18" vType="car" speedFactor="1.05" vaporized=""/>
    <tripinfo id="SN_26" depart="26.00" departLane="3i_0" departPos="10.10" departSpeed="0.00" departDelay="0.00" arrival="114.00" arrivalLane="2o_0" arrivalPos="492.80" arrivalSpeed="10.16" duration="88.00" routeLength="984.53" waitingTime="0.00" waitingCount="0" stopTime="0.00" timeLoss="11.56" rerouteNo="0" devices="tripinfo_SN_26" vType="truck" speedFactor="0.93" vaporized=""/>
    <tripinfo id="NS_17" depart="17.00" departLane="2i_0" departPos="4.10" departSpeed="0.00" departDelay="0.00" arrival="115.00" arrivalLane="3o_0" arrivalPos="492.80" arrivalSpeed="8.70" duration="98.00" routeLength="995.70" waitingTime="1.00" waitingCount="1" stopTime="0.00" timeLoss="12.37" rerouteNo="0" devices="tripinfo_NS_17" vType="car" speedFactor="0.83" vaporized=""/>
    <tripinfo id="NS_26" depart="26.00" departLane="2i_0" departPos="4.10" departSpeed="0.00" departDelay="0.00" arrival="115.00" arrivalLane="1o_0" arrivalPos="492.80" arrivalSpeed="10.21" duration="89.00" routeLength="995.90" waitingTime="1.00" waitingCount="1" stopTime="0.00" timeLoss="12.83" rerouteNo="0" devices="tripinfo_NS_26" vType="car" speedFactor="0.94" vaporized=""/>
    <tripinfo id="SN_31" depart="31.00" departLane="3i_0" departPos="4.10" departSpeed="0.00" departDelay="0.00" arrival="115.00" arrivalLane="4o_0" arrivalPos="492.80" arrivalSpeed="9.76" duration="84.00" routeLength="995.90" waitingTime="0.00" waitingCount="0" stopTime="0.00" timeLoss="12.49" rerouteNo="0" devices="tripinfo_SN_31" vType="car" speedFactor="0.99" vaporized=""/>
    <tripinfo id="EW_31" depart="32.00" departLane="4i_0" departPos="4.10" departSpeed="0.00" departDelay="1.00" arrival="116.00" arrivalLane="1o_0" arrivalPos="492.80" arrivalSpeed="10.39" duration="84.00" routeLength="990.53" waitingTime="0.00" waitingCount="0" stopTime="0.00" timeLoss="21.34" rerouteNo="0" devices="tripinfo_EW_31" vType="car" speedFactor="1.12" vaporized=""/>
    <tripinfo id="EW_23" depart="23.00" departLane="4i_0" departPos="4.10" departSpeed="0.00" departDelay="0.00" arrival="117.00" arrivalLane="3o_0" arrivalPos="492.80" arrivalSpeed="9.21" duration="94.00" routeLength="995.90" waitingTime="0.00" waitingCount="0" stopTime="0.00" timeLoss="13.58" rerouteNo="0" devices="tripinfo_EW_23" vType="car" speedFactor="0.89" vaporized=""/>
    <tripinfo id="EW_29" depart="29.00" departLane="4i_0" departPos="4.10" departSpeed="0.00" departDelay="0.00" arrival="118.00" arrivalLane="3o_0" arrivalPos="492.80" arrivalSpeed="10.76" duration="89.00" routeLength="995.90" waitingTime="0.00" waitingCount="0" stopTime="0.00" timeLoss="20.30" rerouteNo="0" devices="tripinfo_EW_29" vType="car" speedFactor="1.03" vaporized=""/>
    <tripinfo id="NS_28" depart="30.00" departLane="2i_0" departPos="10.10" departSpeed="0.00" departDelay="2.00" arrival="122.00" arrivalLane="3o_0" arrivalPos="492.80" arrivalSpeed="11.47" duration="92.00" routeLength="989.70" waitingTime="2.00" waitingCount="2" stopTime="0.00" timeLoss="23.73" rerouteNo="0" devices="tripinfo_NS_28" vType="truck" speedFactor="1.05" vaporized=""/>
    <tripinfo id="SN_39" depart="39.00" departLane="3i_0" departPos="4.10" departSpeed="0.00" departDelay="0.00" arrival="122.00" arrivalLane="2o_0" arrivalPos="492.80" arrivalSpeed="10.46" duration="83.00" routeLength="990.53" waitingTime="0.00" waitingCount="0" stopTime="0.00" timeLoss="8.15" rerouteNo="0" devices="tripinfo_SN_39" vType="car" speedFactor="0.94" vaporized=""/>
    <tripinfo id="EW_34" depart="34.00" departLane="4i_0" departPos="4.10" departSpeed="0.00" departDelay="0.00" arrival="126.00" arrivalLane="1o_0" arrivalPos="492.80" arrivalSpeed="9.36" duration="92.00" routeLength="990.53" waitingTime="1.00" waitingCount="1" stopTime="0.00" timeLoss="11.71" rerouteNo="0" devices="tripinfo_EW_34" vType="car" speedFactor="0.88" vaporized=""/>
    <tripinfo id="SN_59" depart="59.00" departLane="3i_0" departPos="4.10" departSpeed="0.00" departDelay="0.00" arrival="130.00" arrivalLane="4o_0" arrivalPos="492.80" arrivalSpeed="11.80" duration="71.00" routeLength="995.90" waitingTime="0.00" waitingCount="0" stopTime="0.00" timeLoss="8.91" rerouteNo="0" devices="tripinfo_SN_59" vType="car" speedFactor="1.15" vaporized=""/>
    <tripinfo id="NS_29" depart="35.00" departLane="2i_0" departPos="10.10" departSpeed="0.00" departDelay="6.00" arrival="131.00" arrivalLane="3o_0" arrivalPos="492.80" arrivalSpeed="11.34" duration="96.00" routeLength="989.70" waitingTime="1.00" waitingCount="1" stopTime="0.00" timeLoss="27.12" rerouteNo="0" devices="tripinfo_NS_29" vType="truck" speedFactor="1.02" vaporized=""/>
    <tripinfo id="WE_40" depart="40.00" departLane="1i_0" departPos="4.10" departSpeed="0.00" departDelay="0.00" arrival="133.00" arrivalLane="2o_0" arrivalPos="492.80" arrivalSpeed="9.69" duration="93.00" routeLength="995.90" waitingTime="4.00" waitingCount="1" stopTime="0.00" timeLoss="17.12" rerouteNo="0" devices="tripinfo_WE_40" vType="car" speedFactor="0.94" vaporized=""/>
    <tripinfo id="SN_43" depart="43.00" departLane="3i_0" departPos="10.10" departSpeed="0.00" departDelay="0.00" arrival="135.00" arrivalLane="2o_0" arrivalPos="492.80" arrivalSpeed="11.03" duration="92.00" routeLength="984.53" waitingTime="0.00" waitingCount="0" stopTime="0.00" timeLoss="22.34" rerouteNo="0" devices="tripinfo_SN_43" vType="truck" speedFactor="1.01" vaporized=""/>
    <tripinfo id="EW_49" depart="49.00" departLane="4i_0" departPos="10.10" departSpeed="0.00" departDelay="0.00" arrival="135.00" arrivalLane="3o_0" arrivalPos="492.80" arrivalSpeed="10.82" duration="86.00" routeLength="989.90" waitingTime="0.00" waitingCount="0" stopTime="0.00" timeLoss="14.57" rerouteNo="0" devices="tripinfo_EW_49" vType="truck" speedFactor="0.99" vaporized=""/>
    <tripinfo id="WE_43" depart="43.00" departLane="1i_0" departPos="4.10" departSpeed="0.00" departDelay="0.00" arrival="138.00" arrivalLane="2o_0" arrivalPos="492.80" arrivalSpeed="10.87" duration="95.00" routeLength="995.90" waitingTime="9.00" waitingCount="2" stopTime="0.00" timeLoss="25.09" rerouteNo="0" devices="tripinfo_WE_43" vType="car" speedFactor="1.02" vaporized=""/>
    <tripinfo id="NS_32" depart="39.00" departLane="2i_0" departPos="4.10" departSpeed="0.00" departDelay="7.00" arrival="142.00" arrivalLane="1o_0" arrivalPos="492.80" arrivalSpeed="10.23" duration="103.00" routeLength="995.90" waitingTime="1.00" waitingCount="1" stopTime="0.00" timeLoss="26.85" rerouteNo="0" devices="tripinfo_NS_32" vType="car" speedFactor="0.93" vaporized=""/>
    <tripinfo id="SN_65" depart="65.00" departLane="3i_0" departPos="4.10" departSpeed="0.00" departDelay="0.00" arrival="146.00" arrivalLane="2o_0" arrivalPos="492.80" arrivalSpeed="10.59" duration="81.00" routeLength="990.53" waitingTime="1.00" waitingCount="1" stopTime="0.00" timeLoss="10.94" rerouteNo="0" devices="tripinfo_SN_65" vType="car" speedFactor="1.01" vaporized=""/>
    <tripinfo id="EW_53" depart="53.00" departLane="4i_0" departPos="4.10" departSpeed="0.00" departDelay="0.00" arrival="150.00" arrivalLane="3o_0" arrivalPos="492.80" arrivalSpeed="9.65" duration="97.00" routeLength="995.90" waitingTime="1.00" waitingCount="1" stopTime="0.00" timeLoss="15.92" rerouteNo="0" devices="tripinfo_EW_53" vType="car" speedFactor="0.87" vaporized=""/>
    <tripinfo id="EW_57" depart="57.00" departLane="4i_0" departPos="4.10" departSpeed="0.00" departDelay="0.00" arrival="152.00" arrivalLane="3o_0" arrivalPos="492.80" arrivalSpeed="11.41" duration="95.00" routeLength="995.90" waitingTime="0.00" waitingCount="0" stopTime="0.00" timeLoss="32.01" rerouteNo="0" devices="tripinfo_EW_57" vType="car" speedFactor="1.13" vaporized=""/>
    <tripinfo id="NS_41" depart="43.00" departLane="2i_0" departPos="10.10" departSpeed="0.00" departDelay="2.00" arrival="154.00" arrivalLane="3o_0" arrivalPos="492.80" arrivalSpeed="11.58" duration="111.00" routeLength="989.70" waitingTime="2.00" waitingCount="2" stopTime="0.00" timeLoss="44.54" rerouteNo="0" devices="tripinfo_NS_41" vType="truck" speedFactor="1.08" vaporized=""/>
    <tripinfo id="EW_58" depart="59.00" departLane="4i_0" departPos="4.10" departSpeed="0.00" departDelay="1.00" arrival="159.00" arrivalLane="3o_0" arrivalPos="492.80" arrivalSpeed="10.00" duration="100.00" routeLength="995.90" waitingTime="5.00" waitingCount="3" stopTime="0.00" timeLoss="24.06" rerouteNo="0" devices="tripinfo_EW_58" vType="car" speedFactor="0.93" vaporized=""/>
    <tripinfo id="WE_52" depart="52.00" departLane="1i_0" departPos="4.10" departSpeed="0.00" departDelay="0.00" arrival="162.00" arrivalLane="4o_0" arrivalPos="492.80" arrivalSpeed="8.86" duration="110.00" routeLength="995.70" waitingTime="6.00" waitingCount="2" stopTime="0.00" timeLoss="24.27" rerouteNo="0" devices="tripinfo_WE_52" vType="car" speedFactor="0.83" vaporized=""/>
    <tripinfo id="WE_66" depart="66.00" departLane="1i_0" departPos="10.10" departSpeed="0.00" departDelay="0.00" arrival="162.00" arrivalLane="3o_0" arrivalPos="492.80" arrivalSpeed="12.03" duration="96.00" routeLength="984.53" waitingTime="3.00" waitingCount="2" stopTime="0.00" timeLoss="29.65" rerouteNo="0" devices="tripinfo_WE_66" vType="truck" speedFactor="1.09" vaporized=""/>
    <tripinfo id="SN_68" depart="68.00" departLane="3i_0" departPos="10.10" departSpeed="0.00" departDelay="0.00" arrival="162.00" arrivalLane="1o_0" arrivalPos="492.80" arrivalSpeed="10.93" duration="94.00" routeLength="989.70" waitingTime="1.00" waitingCount="1" stopTime="0.00" timeLoss="22.82" rerouteNo="0" devices="tripinfo_SN_68" vType="truck" speedFactor="1.00" vaporized=""/>
    <tripinfo id="WE_74" depart="74.00" departLane="1i_0" departPos="4.10" departSpeed="0.00" departDelay="0.00" arrival="164.00" arrivalLane="3o_0" arrivalPos="492.80" arrivalSpeed="11.23" duration="90.00" routeLength="990.53" waitingTime="1.00" waitingCount="1" stopTime="0.00" timeLoss="20.91" rerouteNo="0" devices="tripinfo_WE_74" vType="car" speedFactor="1.02" vaporized=""/>
    <tripinfo id="WE_88" depart="88.00" departLane="1i_0" departPos="4.10" departSpeed="0.00" departDelay="0.00" arrival="166.00" arrivalLane="3o_0" arrivalPos="492.80" arrivalSpeed="10.98" duration="78.00" routeLength="990.53" waitingTime="0.00" waitingCount="0" stopTime="0.00" timeLoss="13.81" rerouteNo="0" devices="tripinfo_WE_88" vType="car" speedFactor="1.10" vaporized=""/>
    <tripinfo id="NS_50" depart="50.00" departLane="2i_0" departPos="4.10" departSpeed="0.00" departDelay="0.00" arrival="172.00" arrivalLane="1o_0" arrivalPos="492.80" arrivalSpeed="9.19" duration="122.00" routeLength="995.90" waitingTime="7.00" waitingCount="4" stopTime="0.00" timeLoss="42.09" rerouteNo="0" devices="tripinfo_NS_50" vType="car" speedFactor="0.89" vaporized=""/>
    <tripinfo id="NS_55" depart="55.00" departLane="2i_0" departPos="4.10" departSpeed="0.00" departDelay="0.00" arrival="173.00" arrivalLane="4o_0" arrivalPos="492.80" arrivalSpeed="9.82" duration="118.00" routeLength="990.53" waitingTime="6.00" waitingCount="5" stopTime="0.00" timeLoss="40.73" rerouteNo="0" devices="tripinfo_NS_55" vType="car" speedFactor="0.92" vaporized=""/>
    <tripinfo id="EW_85" depart="85.00" departLane="4i_0" departPos="4.10" departSpeed="0.00" departDelay="0.00" arrival="174.00" arrivalLane="1o_0" arrivalPos="492.80" arrivalSpeed="11.92" duration="89.00" routeLength="990.53" waitingTime="4.00" waitingCount="2" stopTime="0.00" timeLoss="28.81" rerouteNo="0" devices="tripinfo_EW_85" vType="car" speedFactor="1.18" vaporized=""/>
    <tripinfo id="NS_56" depart="58.00" departLane="2i_0" departPos="4.10" departSpeed="0.00" departDelay="2.00" arrival="177.00" arrivalLane="4o_0" arrivalPos="492.80" arrivalSpeed="9.96" duration="119.00" routeLength="990.53" waitingTime="6.00" waitingCount="3" stopTime="0.00" timeLoss="44.13" rerouteNo="0" devices="tripinfo_NS_56" vType="car" speedFactor="0.95" vaporized=""/>
    <tripinfo id="NS_59" depart="61.00" departLane="2i_0" departPos="4.10" departSpeed="0.00" departDelay="2.00" arrival="178.00" arrivalLane="4o_0" arrivalPos="492.80" arrivalSpeed="10.64" duration="117.00" routeLength="990.53" waitingTime="5.00" waitingCount="3" stopTime="0.00" timeLoss="57.31" rerouteNo="0" devices="tripinfo_NS_59" vType="car" speedFactor="1.18" vaporized=""/>
    <tripinfo id="EW_91" depart="93.00" departLane="4i_0" departPos="10.10" departSpeed="0.00" departDelay="2.00" arrival="180.00" arrivalLane="3o_0" arrivalPos="492.80" arrivalSpeed="10.00" duration="87.00" routeLength="989.90" waitingTime="0.00" waitingCount="0" stopTime="0.00" timeLoss="12.92" rerouteNo="0" devices="tripinfo_EW_91" vType="truck" speedFactor="0.95" vaporized=""/>
    <tripinfo id="EW_94" depart="97.00" departLane="4i_0" departPos="4.10" departSpeed="0.00" departDelay="3.00" arrival="184.00" arrivalLane="3o_0" arrivalPos="492.80" arrivalSpeed="9.35" duration="87.00" routeLength="995.90" waitingTime="0.00" waitingCount="0" stopTime="0.00" timeLoss="13.13" rerouteNo="0" devices="tripinfo_EW_94" vType="car" speedFactor="0.96" vaporized=""/>
    <tripinfo id="WE_94" depart="94.00" departLane="1i_0" departPos="4.10" departSpeed="0.00" departDelay="0.00" arrival="186.00" arrivalLane="4o_0" arrivalPos="492.80" arrivalSpeed="10.62" duration="92.00" routeLength="995.70" waitingTime="10.00" waitingCount="2" stopTime="0.00" timeLoss="22.95" rerouteNo="0" devices="tripinfo_WE_94" vType="car" speedFactor="1.03" vaporized=""/>
    <tripinfo id="EW_96" depart="100.00" departLane="4i_0" departPos="4.10" departSpeed="0.00" departDelay="4.00" arrival="186.00" arrivalLane="3o_0" arrivalPos="492.80" arrivalSpeed="11.86" duration="86.00" routeLength="995.90" waitingTime="0.00" waitingCount="0" stopTime="0.00" timeLoss="20.96" rerouteNo="0" devices="tripinfo_EW_96" vType="car" speedFactor="1.09" vaporized=""/>
    <tripinfo id="NS_77" depart="78.00" departLane="2i_0" departPos="4.10" departSpeed="0.00" departDelay="1.00" arrival="188.00" arrivalLane="3o_0" arrivalPos="492.80" arrivalSpeed="10.13" duration="110.00" routeLength="995.70" waitingTime="4.00" waitingCount="4" stopTime="0.00" timeLoss="37.18" rerouteNo="0" devices="tripinfo_NS_77" vType="car" speedFactor="0.97" vaporized=""/>
    <tripinfo id="NS_96" depart="96.00" departLane="2i_0" departPos="4.10" departSpeed="0.00" departDelay="0.00" arrival="189.00" arrivalLane="1o_0" arrivalPos="492.80" arrivalSpeed="10.47" duration="93.00" routeLength="995.90" waitingTime="1.00" waitingCount="1" stopTime="0.00" timeLoss="24.39" rerouteNo="0" devices="tripinfo_NS_96" vType="car" speedFactor="1.04" vaporized=""/>
    <tripinfo id="WE_98" depart="98.00" departLane="1i_0" departPos="4.10" departSpeed="0.00" departDelay="0.00" arrival="193.00" arrivalLane="4o_0" arrivalPos="492.80" arrivalSpeed="10.91" duration="95.00" routeLength="995.70" waitingTime="8.00" waitingCount="2" stopTime="0.00" timeLoss="27.14" rerouteNo="0" devices="tripinfo_WE_98" vType="car" speedFactor="1.04" vaporized=""/>
    <tripinfo id="SN_106" depart="106.00" departLane="3i_0" departPos="4.10" departSpeed="0.00" departDelay="0.00" arrival="193.00" arrivalLane="2o_0" arrivalPos="492.80" arrivalSpeed="8.91" duration="87.00" routeLength="990.53" waitingTime="0.00" waitingCount="0" stopTime="0.00" timeLoss="9.10" rerouteNo="0" devices="tripinfo_SN_106" vType="car" speedFactor="0.90" vaporized=""/>
    <tripinfo id="NS_100" depart="100.00" departLane="2i_0" departPos="4.10" departSpeed="0.00" departDelay="0.00" arrival="196.00" arrivalLane="3o_0" arrivalPos="492.80" arrivalSpeed="11.02" duration="96.00" routeLength="995.70" waitingTime="1.00" waitingCount="1" stopTime="0.00" timeLoss="25.11" rerouteNo="0" devices="tripinfo_NS_100" vType="car" speedFactor="1.00" vaporized=""/>
    <tripinfo id="WE_100" depart="100.00" departLane="1i_0" departPos="4.10" departSpeed="0.00" departDelay="0.00" arrival="201.00" arrivalLane="3o_0" arrivalPos="492.80" arrivalSpeed="11.61" duration="101.00" routeLength="990.53" waitingTime="12.00" waitingCount="2" stopTime="0.00" timeLoss="35.96" rerouteNo="0" devices="tripinfo_WE_100" vType="car" speedFactor="1.09" vaporized=""/>
    <tripinfo id="EW_109" depart="109.00" departLane="4i_0" departPos="4.10" departSpeed="0.00" departDelay="0.00" arrival="201.00" arrivalLane="2o_0" arrivalPos="492.80" arrivalSpeed="9.57" duration="92.00" routeLength="995.70" waitingTime="0.00" waitingCount="0" stopTime="0.00" timeLoss="10.79" rerouteNo="0" devices="tripinfo_EW_109" vType="car" speedFactor="0.88" vaporized=""/>
    <tripinfo id="NS_120" depart="120.00" departLane="2i_0" departPos="4.10" departSpeed="0.00" departDelay="0.00" arrival="203.00" arrivalLane="1o_0" arrivalPos="492.80" arrivalSpeed="12.16" duration="83.00" routeLength="995.90" waitingTime="0.00" waitingCount="0" stopTime="0.00" timeLoss="21.91" rerouteNo="0" devices="tripinfo_NS_120" vType="car" speedFactor="1.17" vaporized=""/>
    <tripinfo id="SN_113" depart="115.00" departLane="3i_0" departPos="4.10" departSpeed="0.00" departDelay="2.00" arrival="206.00" arrivalLane="2o_0" arrivalPos="492.80" arrivalSpeed="9.49" duration="91.00" routeLength="990.53" waitingTime="0.00" waitingCount="0" stopTime="0.00" timeLoss="8.66" rerouteNo="0" devices="tripinfo_SN_113" vType="car" speedFactor="0.85" vaporized=""/>
    <tripinfo id="WE_126" depart="126.00" departLane="1i_0" departPos="4.10" departSpeed="0.00" departDelay="0.00" arrival="212.00" arrivalLane="2o_0" arrivalPos="492.80" arrivalSpeed="10.01" duration="86.00" routeLength="995.90" waitingTime="2.00" waitingCount="1" stopTime="0.00" timeLoss="16.24" rerouteNo="0" devices="tripinfo_WE_126" vType="car" speedFactor="1.02" vaporized=""/>
    <tripinfo id="EW_137" depart="137.00" departLane="4i_0" departPos="4.10" departSpeed="0.00" departDelay="0.00" arrival="216.00" arrivalLane="2o_0" arrivalPos="492.80" arrivalSpeed="10.28" duration="79.00" routeLength="995.70" waitingTime="0.00" waitingCount="0" stopTime="0.00" timeLoss="9.55" rerouteNo="0" devices="tripinfo_EW_137" vType="car" speedFactor="1.02" vaporized=""/>
    <tripinfo id="NS_111" depart="114.00" departLane="2i_0" departPos="4.10" departSpeed="0.00" departDelay="3.00" arrival="217.00" arrivalLane="3o_0" arrivalPos="492.80" arrivalSpeed="9.08" duration="103.00" routeLength="995.70" waitingTime="2.00" waitingCount="2" stopTime="0.00" timeLoss="19.89" rerouteNo="0" devices="tripinfo_NS_111" vType="car" speedFactor="0.85" vaporized=""/>
    <tripinfo id="EW_133" depart="133.00" departLane="4i_0" departPos="4.10" departSpeed="0.00" departDelay="0.00" arrival="219.00" arrivalLane="1o_0" arrivalPos="492.80" arrivalSpeed="9.54" duration="86.00" routeLength="990.53" waitingTime="0.00" waitingCount="0" stopTime="0.00" timeLoss="7.64" rerouteNo="0" devices="tripinfo_EW_133" vType="car" speedFactor="0.90" vaporized=""/>
    <tripinfo id="WE_132" depart="132.00" departLane="1i_0" departPos="4.10" departSpeed="0.00" departDelay="0.00" arrival="222.00" arrivalLane="2o_0" arrivalPos="492.80" arrivalSpeed="10.19" duration="90.00" routeLength="995.90" waitingTime="4.00" waitingCount="1" stopTime="0.00" timeLoss="18.49" rerouteNo="0" devices="tripinfo_WE_132" vType="car" speedFactor="1.00" vaporized=""/>
    <tripinfo id="NS_131" depart="135.00" departLane="2i_0" departPos="4.10" departSpeed="0.00" departDelay="4.00" arrival="225.00" arrivalLane="3o_0" arrivalPos="492.80" arrivalSpeed="10.33" duration="90.00" routeLength="995.70" waitingTime="3.00" waitingCount="2" stopTime="0.00" timeLoss="19.09" rerouteNo="0" devices="tripinfo_NS_131" vType="car" speedFactor="1.00" vaporized=""/>
    <tripinfo id="EW_139" depart="140.00" departLane="4i_0" departPos="4.10" departSpeed="0.00" departDelay="1.00" arrival="227.00" arrivalLane="2o_0" arrivalPos="492.80" arrivalSpeed="10.25" duration="87.00" routeLength="995.70" waitingTime="0.00" waitingCount="0" stopTime="0.00" timeLoss="13.45" rerouteNo="0" devices="tripinfo_EW_139" vType="car" speedFactor="0.97" vaporized=""/>
    <tripinfo id="WE_145" depart="145.00" departLane="1i_0" departPos="4.10" departSpeed="0.00" departDelay="0.00" arrival="228.00" arrivalLane="2o_0" arrivalPos="492.80" arrivalSpeed="12.06" duration="83.00" routeLength="995.90" waitingTime="0.00" waitingCount="0" stopTime="0.00" timeLoss="19.88" rerouteNo="0" devices="tripinfo_WE_145" vType="car" speedFactor="1.12" vaporized=""/>
    <tripinfo id="EW_150" depart="150.00" departLane="4i_0" departPos="4.10" departSpeed="0.00" departDelay="0.00" arrival="229.00" arrivalLane="1o_0" arrivalPos="492.80" arrivalSpeed="9.76" duration="79.00" routeLength="990.53" waitingTime="0.00" waitingCount="0" stopTime="0.00" timeLoss="7.84" rerouteNo="0" devices="tripinfo_EW_150" vType="car" speedFactor="0.99" vaporized=""/>
    <tripinfo id="SN_133" depart="135.00" departLane="3i_0" departPos="4.10" departSpeed="0.00" departDelay="2.00" arrival="230.00" arrivalLane="2o_0" arrivalPos="492.80" arrivalSpeed="12.57" duration="95.00" routeLength="990.53" waitingTime="15.00" waitingCount="1" stopTime="0.00" timeLoss="33.29" rerouteNo="0" devices="tripinfo_SN_133" vType="car" speedFactor="1.14" vaporized=""/>
    <tripinfo id="SN_126" depart="126.00" departLane="3i_0" departPos="10.10" departSpeed="0.00" departDelay="0.00" arrival="233.00" arrivalLane="1o_0" arrivalPos="492.80" arrivalSpeed="11.55" duration="107.00" routeLength="989.70" waitingTime="15.00" waitingCount="1" stopTime="0.00" timeLoss="38.85" rerouteNo="0" devices="tripinfo_SN_126" vType="truck" speedFactor="1.05" vaporized=""/>
    <tripinfo id="SN_140" depart="140.00" departLane="3i_0" departPos="4.10" departSpeed="0.00" departDelay="0.00" arrival="234.00" arrivalLane="2o_0" arrivalPos="492.80" arrivalSpeed="10.90" duration="94.00" routeLength="990.53" waitingTime="11.00" waitingCount="1" stopTime="0.00" timeLoss="28.97" rerouteNo="0" devices="tripinfo_SN_140" vType="car" speedFactor="1.08" vaporized=""/>
    <tripinfo id="WE_146" depart="148.00" departLane="1i_0" departPos="4.10" departSpeed="0.00" departDelay="2.00" arrival="244.00" arrivalLane="3o_0" arrivalPos="492.80" arrivalSpeed="10.42" duration="96.00" routeLength="990.53" waitingTime="12.00" waitingCount="1" stopTime="0.00" timeLoss="26.32" rerouteNo="0" devices="tripinfo_WE_146" vType="car" speedFactor="1.02" vaporized=""/>
    <tripinfo id="SN_151" depart="154.00" departLane="3i_0" departPos="4.10" departSpeed="0.00" departDelay="3.00" arrival="244.00" arrivalLane="2o_0" arrivalPos="492.80" arrivalSpeed="9.65" duration="90.00" routeLength="990.53" waitingTime="0.00" waitingCount="0" stopTime="0.00" timeLoss="14.17" rerouteNo="0" devices="tripinfo_SN_151" vType="car" speedFactor="0.94" vaporized=""/>
    <tripinfo id="SN_155" depart="157.00" departLane="3i_0" departPos="4.10" departSpeed="0.00" departDelay="2.00" arrival="248.00" arrivalLane="4o_0" arrivalPos="492.80" arrivalSpeed="9.64" duration="91.00" routeLength="995.90" waitingTime="0.00" waitingCount="0" stopTime="0.00" timeLoss="12.49" rerouteNo="0" devices="tripinfo_SN_155" vType="car" speedFactor="0.91" vaporized=""/>
    <tripinfo id="NS_159" depart="159.00" departLane="2i_0" departPos="4.10" departSpeed="0.00" departDelay="0.00" arrival="251.00" arrivalLane="4o_0" arrivalPos="492.80" arrivalSpeed="9.30" duration="92.00" routeLength="990.53" waitingTime="2.00" waitingCount="2" stopTime="0.00" timeLoss="15.01" rerouteNo="0" devices="tripinfo_NS_159" vType="car" speedFactor="0.91" vaporized=""/>
    <tripinfo id="NS_162" depart="162.00" departLane="2i_0" departPos="4.10" departSpeed="0.00" departDelay="0.00" arrival="253.00" arrivalLane="4o_0" arrivalPos="492.80" arrivalSpeed="10.63" duration="91.00" routeLength="990.53" waitingTime="0.00" waitingCount="0" stopTime="0.00" timeLoss="21.80" rerouteNo="0" devices="tripinfo_NS_162" vType="car" speedFactor="1.02" vaporized=""/>
    <tripinfo id="SN_159" depart="162.00" departLane="3i_0" departPos="10.10" departSpeed="0.00" departDelay="3.00" arrival="255.00" arrivalLane="4o_0" arrivalPos="492.80" arrivalSpeed="11.20" duration="93.00" routeLength="989.90" waitingTime="0.00" waitingCount="0" stopTime="0.00" timeLoss="24.06" rerouteNo="0" devices="tripinfo_SN_159" vType="truck" speedFactor="1.02" vaporized=""/>
    <tripinfo id="SN_161" depart="166.00" departLane="3i_0" departPos="4.10" departSpeed="0.00" departDelay="5.00" arrival="258.00" arrivalLane="4o_0" arrivalPos="492.80" arrivalSpeed="10.82" duration="92.00" routeLength="995.90" waitingTime="0.00" waitingCount="0" stopTime="0.00" timeLoss="22.24" rerouteNo="0" devices="tripinfo_SN_161" vType="car" speedFactor="1.02" vaporized=""/>
    <tripinfo id="SN_171" depart="171.00" departLane="3i_0" departPos="4.10" departSpeed="0.00" departDelay="0.00" arrival="259.00" arrivalLane="4o_0" arrivalPos="492.80" arrivalSpeed="11.66" duration="88.00" routeLength="995.90" waitingTime="0.00" waitingCount="0" stopTime="0.00" timeLoss="21.17" rerouteNo="0" devices="tripinfo_SN_171" vType="car" speedFactor="1.06" vaporized=""/>
    <tripinfo id="NS_177" depart="177.00" departLane="2i_0" departPos="4.10" departSpeed="0.00" departDelay="0.00" arrival="259.00" arrivalLane="3o_0" arrivalPos="492.80" arrivalSpeed="11.44" duration="82.00" routeLength="995.70" waitingTime="0.00" waitingCount="0" stopTime="0.00" timeLoss="12.78" rerouteNo="0" devices="tripinfo_NS_177" vType="car" speedFactor="1.03" vaporized=""/>
    <tripinfo id="EW_164" depart="164.00" departLane="4i_0" departPos="4.10" departSpeed="0.00" departDelay="0.00" arrival="262.00" arrivalLane="2o_0" arrivalPos="492.80" arrivalSpeed="10.73" duration="98.00" routeLength="995.70" waitingTime="10.00" waitingCount="2" stopTime="0.00" timeLoss="25.12" rerouteNo="0" devices="tripinfo_EW_164" vType="car" speedFactor="0.97" vaporized=""/>
    <tripinfo id="EW_174" depart="174.00" departLane="4i_0" departPos="4.10" departSpeed="0.00" departDelay="0.00" arrival="269.00" arrivalLane="1o_0" arrivalPos="492.80" arrivalSpeed="10.33" duration="95.00" routeLength="990.53" waitingTime="4.00" waitingCount="1" stopTime="0.00" timeLoss="21.40" rerouteNo="0" devices="tripinfo_EW_174" vType="car" speedFactor="0.96" vaporized=""/>
    <tripinfo id="EW_196" depart="196.00" departLane="4i_0" departPos="4.10" departSpeed="0.00" departDelay="0.00" arrival="269.00" arrivalLane="3o_0" arrivalPos="492.80" arrivalSpeed="11.49" duration="73.00" routeLength="995.90" waitingTime="0.00" waitingCount="0" stopTime="0.00" timeLoss="7.69" rerouteNo="0" devices="tripinfo_EW_196" vType="car" speedFactor="1.09" vaporized=""/>
    <tripinfo id="WE_155" depart="155.00" departLane="1i_0" departPos="4.10" departSpeed="0.00" departDelay="0.00" arrival="270.00" arrivalLane="2o_0" arrivalPos="492.80" arrivalSpeed="9.28" duration="115.00" routeLength="995.90" waitingTime="14.00" waitingCount="3" stopTime="0.00" timeLoss="34.63" rerouteNo="0" devices="tripinfo_WE_155" vType="car" speedFactor="0.88" vaporized=""/>