<?xml version="1.0" encoding="UTF-8"?>

<!-- generated on 2024-05-04 19:36:23 by Eclipse SUMO sumo Version 1.19.0
<configuration xmlns:xsi="http://www.w3.org/2001/XMLSchema-instance" xsi:noNamespaceSchemaLocation="http://sumo.dlr.de/xsd/sumoConfiguration.xsd">

    <input>
        <net-file value="test5.net.xml"/>
        <route-files value="route_gen.rou.xml"/>
    </input>

    <output>
        <tripinfo-output value="tripinfo_epi611.xml"/>
    </output>

    <report>
        <no-warnings value="true"/>
    </report>

    <traci_server>
        <remote-port value="51277"/>
    </traci_server>

</configuration>
-->

<tripinfos xmlns:xsi="http://www.w3.org/2001/XMLSchema-instance" xsi:noNamespaceSchemaLocation="http://sumo.dlr.de/xsd/tripinfo_file.xsd">
    <tripinfo id="NS_4" depart="4.00" departLane="2i_0" departPos="4.10" departSpeed="0.00" departDelay="0.00" arrival="79.00" arrivalLane="4o_0" arrivalPos="492.80" arrivalSpeed="11.67" duration="75.00" routeLength="990.53" waitingTime="0.00" waitingCount="0" stopTime="0.00" timeLoss="8.52" rerouteNo="0" devices="tripinfo_NS_4" vType="car" speedFactor="1.06" vaporized=""/>
    <tripinfo id="WE_13" depart="13.00" departLane="1i_0" departPos="4.10" departSpeed="0.00" departDelay="0.00" arrival="86.00" arrivalLane="2o_0" arrivalPos="492.80" arrivalSpeed="11.49" duration="73.00" routeLength="995.90" waitingTime="0.00" waitingCount="0" stopTime="0.00" timeLoss="7.08" rerouteNo="0" devices="tripinfo_WE_13" vType="car" speedFactor="1.08" vaporized=""/>
    <tripinfo id="SN_6" depart="6.00" departLane="3i_0" departPos="4.10" departSpeed="0.00" departDelay="0.00" arrival="90.00" arrivalLane="4o_0" arrivalPos="492.80" arrivalSpeed="9.80" duration="84.00" routeLength="995.90" waitingTime="0.00" waitingCount="0" stopTime="0.00" timeLoss="8.17" rerouteNo="0" devices="tripinfo_SN_6" vType="car" speedFactor="0.94" vaporized=""/>
    <tripinfo id="EW_16" depart="16.00" departLane="4i_0" departPos="4.10" departSpeed="0.00" departDelay="0.00" arrival="93.00" arrivalLane="1o_0" arrivalPos="492.80" arrivalSpeed="11.26" duration="77.00" routeLength="990.53" waitingTime="0.00" waitingCount="0" stopTime="0.00" timeLoss="8.50" rerouteNo="0" devices="tripinfo_EW_16" vType="car" speedFactor="1.03" vaporized=""/>
    <tripinfo id="SN_12" depart="12.00" departLane="3i_0" departPos="4.10" departSpeed="0.00" departDelay="0.00" arrival="98.00" arrivalLane="1o_0" arrivalPos="492.80" arrivalSpeed="11.06" duration="86.00" routeLength="995.70" waitingTime="0.00" waitingCount="0" stopTime="0.00" timeLoss="15.47" rerouteNo="0" devices="tripinfo_SN_12" vType="car" speedFactor="1.01" vaporized=""/>
    <tripinfo id="SN_26" depart="26.00" departLane="3i_0" departPos="4.10" departSpeed="0.00" departDelay="0.00" arrival="105.00" arrivalLane="1o_0" arrivalPos="492.80" arrivalSpeed="11.40" duration="79.00" routeLength="995.70" waitingTime="0.00" waitingCount="0" stopTime="0.00" timeLoss="10.52" rerouteNo="0" devices="tripinfo_SN_26" vType="car" speedFactor="1.05" vaporized=""/>
    <tripinfo id="NS_24" depart="24.00" departLane="2i_0" departPos="10.10" departSpeed="0.00" departDelay="0.00" arrival="121.00" arrivalLane="1o_0" arrivalPos="492.80" arrivalSpeed="9.99" duration="97.00" routeLength="989.90" waitingTime="3.00" waitingCount="1" stopTime="0.00" timeLoss="20.30" rerouteNo="0" devices="tripinfo_NS_24" vType="truck" speedFactor="0.92" vaporized=""/>
    <tripinfo id="WE_43" depart="43.00" departLane="1i_0" departPos="4.10" departSpeed="0.00" departDelay="0.00" arrival="121.00" arrivalLane="3o_0" arrivalPos="492.80" arrivalSpeed="11.49" duration="78.00" routeLength="990.53" waitingTime="0.00" waitingCount="0" stopTime="0.00" timeLoss="10.26" rerouteNo="0" devices="tripinfo_WE_43" vType="car" speedFactor="1.05" vaporized=""/>
    <tripinfo id="SN_32" depart="32.00" departLane="3i_0" departPos="4.10" departSpeed="0.00" departDelay="0.00" arrival="123.00" arrivalLane="2o_0" arrivalPos="492.80" arrivalSpeed="8.36" duration="91.00" routeLength="990.53" waitingTime="0.00" waitingCount="0" stopTime="0.00" timeLoss="8.67" rerouteNo="0" devices="tripinfo_SN_32" vType="car" speedFactor="0.86" vaporized=""/>
    <tripinfo id="EW_31" depart="31.00" departLane="4i_0" departPos="4.10" departSpeed="0.00" departDelay="0.00" arrival="126.00" arrivalLane="2o_0" arrivalPos="492.80" arrivalSpeed="9.58" duration="95.00" routeLength="995.70" waitingTime="6.00" waitingCount="1" stopTime="0.00" timeLoss="19.44" rerouteNo="0" devices="tripinfo_EW_31" vType="car" speedFactor="0.94" vaporized=""/>
    <tripinfo id="WE_44" depart="46.00" departLane="1i_0" departPos="4.10" departSpeed="0.00" departDelay="2.00" arrival="128.00" arrivalLane="2o_0" arrivalPos="492.80" arrivalSpeed="11.91" duration="82.00" routeLength="995.90" waitingTime="0.00" waitingCount="0" stopTime="0.00" timeLoss="18.31" rerouteNo="0" devices="tripinfo_WE_44" vType="car" speedFactor="1.12" vaporized=""/>
    <tripinfo id="WE_31" depart="31.00" departLane="1i_0" departPos="4.10" departSpeed="0.00" departDelay="0.00" arrival="129.00" arrivalLane="4o_0" arrivalPos="492.80" arrivalSpeed="9.71" duration="98.00" routeLength="995.70" waitingTime="3.00" waitingCount="1" stopTime="0.00" timeLoss="18.07" rerouteNo="0" devices="tripinfo_WE_31" vType="car" speedFactor="0.89" vaporized=""/>
    <tripinfo id="NS_58" depart="58.00" departLane="2i_0" departPos="4.10" departSpeed="0.00" departDelay="0.00" arrival="130.00" arrivalLane="3o_0" arrivalPos="492.80" arrivalSpeed="12.74" duration="72.00" routeLength="995.70" waitingTime="0.00" waitingCount="0" stopTime="0.00" timeLoss="10.15" rerouteNo="0" devices="tripinfo_NS_58" vType="car" speedFactor="1.16" vaporized=""/>
    <tripinfo id="SN_37" depart="37.00" departLane="3i_0" departPos="4.10" departSpeed="0.00" departDelay="0.00" arrival="131.00" arrivalLane="4o_0" arrivalPos="492.80" arrivalSpeed="11.05" duration="94.00" routeLength="995.90" waitingTime="5.00" waitingCount="1" stopTime="0.00" timeLoss="28.81" rerouteNo="0" devices="tripinfo_SN_37" vType="car" speedFactor="1.09" vaporized=""/>
    <tripinfo id="NS_42" depart="42.00" departLane="2i_0" departPos="10.10" departSpeed="0.00" departDelay="0.00" arrival="132.00" arrivalLane="1o_0" arrivalPos="492.80" arrivalSpeed="10.99" duration="90.00" routeLength="989.90" waitingTime="0.00" waitingCount="0" stopTime="0.00" timeLoss="20.07" rerouteNo="0" devices="tripinfo_NS_42" vType="truck" speedFactor="1.01" vaporized=""/>
    <tripinfo id="WE_49" depart="49.00" departLane="1i_0" departPos="10.10" departSpeed="0.00" departDelay="0.00" arrival="138.00" arrivalLane="4o_0" arrivalPos="492.80" arrivalSpeed="10.80" duration="89.00" routeLength="989.70" waitingTime="0.00" waitingCount="0" stopTime="0.00" timeLoss="18.38" rerouteNo="0" devices="tripinfo_WE_49" vType="truck" speedFactor="1.00" vaporized=""/>
    <tripinfo id="SN_50" depart="50.00" departLane="3i_0" departPos="10.10" departSpeed="0.00" departDelay="0.00" arrival="146.00" arrivalLane="2o_0" arrivalPos="492.80" arrivalSpeed="10.44" duration="96.00" routeLength="984.53" waitingTime="3.00" waitingCount="2" stopTime="0.00" timeLoss="23.08" rerouteNo="0" devices="tripinfo_SN_50" vType="truck" speedFactor="0.96" vaporized=""/>
    <tripinfo id="EW_53" depart="53.00" departLane="4i_0" departPos="4.10" departSpeed="0.00" departDelay="0.00" arrival="151.00" arrivalLane="2o_0" arrivalPos="492.80" arrivalSpeed="10.45" duration="98.00" routeLength="995.70" waitingTime="9.00" waitingCount="1" stopTime="0.00" timeLoss="22.25" rerouteNo="0" devices="tripinfo_EW_53" vType="car" speedFactor="0.94" vaporized=""/>
    <tripinfo id="EW_56" depart="56.00" departLane="4i_0" departPos="4.10" departSpeed="0.00" departDelay="0.00" arrival="152.00" arrivalLane="3o_0" arrivalPos="492.80" arrivalSpeed="10.18" duration="96.00" routeLength="995.90" waitingTime="7.00" waitingCount="1" stopTime="0.00" timeLoss="20.56" rerouteNo="0" devices="tripinfo_EW_56" vType="car" speedFactor="0.94" vaporized=""/>
    <tripinfo id="SN_69" depart="69.00" departLane="3i_0" departPos="4.10" departSpeed="0.00" departDelay="0.00" arrival="156.00" arrivalLane="2o_0" arrivalPos="492.80" arrivalSpeed="10.10" duration="87.00" routeLength="990.53" waitingTime="1.00" waitingCount="1" stopTime="0.00" timeLoss="15.04" rerouteNo="0" devices="tripinfo_SN_69" vType="car" speedFactor="0.97" vaporized=""/>
    <tripinfo id="SN_51" depart="54.00" departLane="3i_0" departPos="4.10" departSpeed="0.00" departDelay="3.00" arrival="159.00" arrivalLane="1o_0" arrivalPos="492.80" arrivalSpeed="9.65" duration="105.00" routeLength="995.70" waitingTime="0.00" waitingCount="0" stopTime="0.00" timeLoss="24.05" rerouteNo="0" devices="tripinfo_SN_51" vType="car" speedFactor="0.88" vaporized=""/>
    <tripinfo id="EW_65" depart="65.00" departLane="4i_0" departPos="4.10" departSpeed="0.00" departDelay="0.00" arrival="161.00" arrivalLane="1o_0" arrivalPos="492.80" arrivalSpeed="10.70" duration="96.00" routeLength="990.53" waitingTime="3.00" waitingCount="3" stopTime="0.00" timeLoss="26.23" rerouteNo="0" devices="tripinfo_EW_65" vType="car" speedFactor="1.02" vaporized=""/>
    <tripinfo id="WE_67" depart="67.00" departLane="1i_0" departPos="4.10" departSpeed="0.00" departDelay="0.00" arrival="161.00" arrivalLane="4o_0" arrivalPos="492.80" arrivalSpeed="10.58" duration="94.00" routeLength="995.70" waitingTime="9.00" waitingCount="2" stopTime="0.00" timeLoss="23.44" rerouteNo="0" devices="tripinfo_WE_67" vType="car" speedFactor="1.01" vaporized=""/>
    <tripinfo id="SN_83" depart="83.00" departLane="3i_0" departPos="4.10" departSpeed="0.00" departDelay="0.00" arrival="162.00" arrivalLane="1o_0" arrivalPos="492.80" arrivalSpeed="12.04" duration="79.00" routeLength="995.70" waitingTime="2.00" waitingCount="1" stopTime="0.00" timeLoss="16.46" rerouteNo="0" devices="tripinfo_SN_83" vType="car" speedFactor="1.13" vaporized=""/>
    <tripinfo id="NS_70" depart="70.00" departLane="2i_0" departPos="4.10" departSpeed="0.00" departDelay="0.00" arrival="167.00" arrivalLane="3o_0" arrivalPos="492.80" arrivalSpeed="8.26" duration="97.00" routeLength="995.70" waitingTime="0.00" waitingCount="0" stopTime="0.00" timeLoss="10.73" rerouteNo="0" devices="tripinfo_NS_70" vType="car" speedFactor="0.83" vaporized=""/>
    <tripinfo id="NS_98" depart="98.00" departLane="2i_0" departPos="4.10" departSpeed="0.00" departDelay="0.00" arrival="167.00" arrivalLane="4o_0" arrivalPos="492.80" arrivalSpeed="12.25" duration="69.00" routeLength="990.53" waitingTime="0.00" waitingCount="0" stopTime="0.00" timeLoss="9.41" rerouteNo="0" devices="tripinfo_NS_98" vType="car" speedFactor="1.18" vaporized=""/>
    <tripinfo id="WE_70" depart="70.00" departLane="1i_0" departPos="4.10" departSpeed="0.00" departDelay="0.00" arrival="170.00" arrivalLane="3o_0" arrivalPos="492.80" arrivalSpeed="9.18" duration="100.00" routeLength="990.53" waitingTime="3.00" waitingCount="1" stopTime="0.00" timeLoss="20.69" rerouteNo="0" devices="tripinfo_WE_70" vType="car" speedFactor="0.89" vaporized=""/>
    <tripinfo id="EW_74" depart="74.00" departLane="4i_0" departPos="4.10" departSpeed="0.00" departDelay="0.00" arrival="172.00" arrivalLane="2o_0" arrivalPos="492.80" arrivalSpeed="9.06" duration="98.00" routeLength="995.70" waitingTime="0.00" waitingCount="0" stopTime="0.00" timeLoss="16.56" rerouteNo="0" devices="tripinfo_EW_74" vType="car" speedFactor="0.87" vaporized=""/>
    <tripinfo id="WE_83" depart="83.00" departLane="1i_0" departPos="4.10" departSpeed="0.00" departDelay="0.00" arrival="174.00" arrivalLane="2o_0" arrivalPos="492.80" arrivalSpeed="9.87" duration="91.00" routeLength="995.90" waitingTime="0.00" waitingCount="0" stopTime="0.00" timeLoss="15.79" rerouteNo="0" devices="tripinfo_WE_83" vType="car" speedFactor="0.95" vaporized=""/>
    <tripinfo id="EW_91" depart="91.00" departLane="4i_0" departPos="4.10" departSpeed="0.00" departDelay="0.00" arrival="177.00" arrivalLane="3o_0" arrivalPos="492.80" arrivalSpeed="9.94" duration="86.00" routeLength="995.90" waitingTime="0.00" waitingCount="0" stopTime="0.00" timeLoss="10.10" rerouteNo="0" devices="tripinfo_EW_91" vType="car" speedFactor="0.93" vaporized=""/>
    <tripinfo id="EW_75" depart="77.00" departLane="4i_0" departPos="4.10" departSpeed="0.00" departDelay="2.00" arrival="178.00" arrivalLane="2o_0" arrivalPos="492.80" arrivalSpeed="9.92" duration="101.00" routeLength="995.70" waitingTime="4.00" waitingCount="2" stopTime="0.00" timeLoss="23.49" rerouteNo="0" devices="tripinfo_EW_75" vType="car" speedFactor="0.92" vaporized=""/>
    <tripinfo id="WE_101" depart="101.00" departLane="1i_0" departPos="4.10" departSpeed="0.00" departDelay="0.00" arrival="181.00" arrivalLane="3o_0" arrivalPos="492.80" arrivalSpeed="10.07" duration="80.00" routeLength="990.53" waitingTime="0.00" waitingCount="0" stopTime="0.00" timeLoss="9.30" rerouteNo="0" devices="tripinfo_WE_101" vType="car" speedFactor="1.01" vaporized=""/>
    <tripinfo id="NS_99" depart="101.00" departLane="2i_0" departPos="4.10" departSpeed="0.00" departDelay="2.00" arrival="182.00" arrivalLane="3o_0" arrivalPos="492.80" arrivalSpeed="11.62" duration="81.00" routeLength="995.70" waitingTime="1.00" waitingCount="1" stopTime="0.00" timeLoss="19.72" rerouteNo="0" devices="tripinfo_NS_99" vType="car" speedFactor="1.15" vaporized=""/>
    <tripinfo id="NS_112" depart="112.00" departLane="2i_0" departPos="4.10" departSpeed="0.00" departDelay="0.00" arrival="182.00" arrivalLane="4o_0" arrivalPos="492.80" arrivalSpeed="12.85" duration="70.00" routeLength="990.53" waitingTime="0.00" waitingCount="0" stopTime="0.00" timeLoss="10.53" rerouteNo="0" devices="tripinfo_NS_112" vType="car" speedFactor="1.18" vaporized=""/>
    <tripinfo id="SN_112" depart="112.00" departLane="3i_0" departPos="4.10" departSpeed="0.00" departDelay="0.00" arrival="184.00" arrivalLane="2o_0" arrivalPos="492.80" arrivalSpeed="11.43" duration="72.00" routeLength="990.53" waitingTime="0.00" waitingCount="0" stopTime="0.00" timeLoss="7.96" rerouteNo="0" devices="tripinfo_SN_112" vType="car" speedFactor="1.10" vaporized=""/>
    <tripinfo id="NS_104" depart="104.00" departLane="2i_0" departPos="4.10" departSpeed="0.00" departDelay="0.00" arrival="185.00" arrivalLane="3o_0" arrivalPos="492.80" arrivalSpeed="9.96" duration="81.00" routeLength="995.70" waitingTime="0.00" waitingCount="0" stopTime="0.00" timeLoss="9.86" rerouteNo="0" devices="tripinfo_NS_104" vType="car" speedFactor="0.99" vaporized=""/>
    <tripinfo id="EW_106" depart="106.00" departLane="4i_0" departPos="4.10" departSpeed="0.00" departDelay="0.00" arrival="188.00" arrivalLane="3o_0" arrivalPos="492.80" arrivalSpeed="10.15" duration="82.00" routeLength="995.90" waitingTime="0.00" waitingCount="0" stopTime="0.00" timeLoss="12.50" rerouteNo="0" devices="tripinfo_EW_106" vType="car" speedFactor="1.02" vaporized=""/>
    <tripinfo id="WE_104" depart="105.00" departLane="1i_0" departPos="4.10" departSpeed="0.00" departDelay="1.00" arrival="189.00" arrivalLane="4o_0" arrivalPos="492.80" arrivalSpeed="12.21" duration="84.00" routeLength="995.70" waitingTime="7.00" waitingCount="1" stopTime="0.00" timeLoss="23.27" rerouteNo="0" devices="tripinfo_WE_104" vType="car" speedFactor="1.17" vaporized=""/>
    <tripinfo id="EW_115" depart="115.00" departLane="4i_0" departPos="4.10" departSpeed="0.00" departDelay="0.00" arrival="198.00" arrivalLane="3o_0" arrivalPos="492.80" arrivalSpeed="10.39" duration="83.00" routeLength="995.90" waitingTime="0.00" waitingCount="0" stopTime="0.00" timeLoss="8.79" rerouteNo="0" devices="tripinfo_EW_115" vType="car" speedFactor="0.96" vaporized=""/>
    <tripinfo id="WE_108" depart="108.00" departLane="1i_0" departPos="4.10" departSpeed="0.00" departDelay="0.00" arrival="199.00" arrivalLane="2o_0" arrivalPos="492.80" arrivalSpeed="10.22" duration="91.00" routeLength="995.90" waitingTime="3.00" waitingCount="1" stopTime="0.00" timeLoss="18.22" rerouteNo="0" devices="tripinfo_WE_108" vType="car" speedFactor="0.97" vaporized=""/>
    <tripinfo id="WE_114" depart="114.00" departLane="1i_0" departPos="4.10" departSpeed="0.00" departDelay="0.00" arrival="200.00" arrivalLane="3o_0" arrivalPos="492.80" arrivalSpeed="10.20" duration="86.00" routeLength="990.53" waitingTime="0.00" waitingCount="0" stopTime="0.00" timeLoss="17.36" rerouteNo="0" devices="tripinfo_WE_114" vType="car" speedFactor="1.03" vaporized=""/>
    <tripinfo id="EW_117" depart="117.00" departLane="4i_0" departPos="4.10" departSpeed="0.00" departDelay="0.00" arrival="201.00" arrivalLane="2o_0" arrivalPos="492.80" arrivalSpeed="10.48" duration="84.00" routeLength="995.70" waitingTime="0.00" waitingCount="0" stopTime="0.00" timeLoss="15.98" rerouteNo="0" devices="tripinfo_EW_117" vType="car" speedFactor="1.04" vaporized=""/>
    <tripinfo id="WE_119" depart="121.00" departLane="1i_0" departPos="4.10" departSpeed="0.00" departDelay="2.00" arrival="201.00" arrivalLane="3o_0" arrivalPos="492.80" arrivalSpeed="11.92" duration="80.00" routeLength="990.53" waitingTime="0.00" waitingCount="0" stopTime="0.00" timeLoss="15.44" rerouteNo="0" devices="tripinfo_WE_119" vType="car" speedFactor="1.09" vaporized=""/>
    <tripinfo id="NS_115" depart="115.00" departLane="2i_0" departPos="4.10" departSpeed="0.00" departDelay="0.00" arrival="203.00" arrivalLane="3o_0" arrivalPos="492.80" arrivalSpeed="11.91" duration="88.00" routeLength="995.70" waitingTime="8.00" waitingCount="2" stopTime="0.00" timeLoss="23.18" rerouteNo="0" devices="tripinfo_NS_115" vType="car" speedFactor="1.09" vaporized=""/>
    <tripinfo id="EW_120" depart="120.00" departLane="4i_0" departPos="4.10" departSpeed="0.00" departDelay="0.00" arrival="207.00" arrivalLane="1o_0" arrivalPos="492.80" arrivalSpeed="10.52" duration="87.00" routeLength="990.53" waitingTime="2.00" waitingCount="1" stopTime="0.00" timeLoss="16.48" rerouteNo="0" devices="tripinfo_EW_120" vType="car" speedFactor="1.00" vaporized=""/>
    <tripinfo id="SN_113" depart="115.00" departLane="3i_0" departPos="4.10" departSpeed="0.00" departDelay="2.00" arrival="213.00" arrivalLane="2o_0" arrivalPos="492.80" arrivalSpeed="9.43" duration="98.00" routeLength="990.53" waitingTime="6.00" waitingCount="1" stopTime="0.00" timeLoss="19.76" rerouteNo="0" devices="tripinfo_SN_113" vType="car" speedFactor="0.90" vaporized=""/>
    <tripinfo id="SN_116" depart="118.00" departLane="3i_0" departPos="4.10" departSpeed="0.00" departDelay="2.00" arrival="215.00" arrivalLane="2o_0" arrivalPos="492.80" arrivalSpeed="11.03" duration="97.00" routeLength="990.53" waitingTime="6.00" waitingCount="2" stopTime="0.00" timeLoss="28.71" rerouteNo="0" devices="tripinfo_SN_116" vType="car" speedFactor="1.04" vaporized=""/>
    <tripinfo id="SN_137" depart="137.00" departLane="3i_0" departPos="4.10" departSpeed="0.00" departDelay="0.00" arrival="220.00" arrivalLane="2o_0" arrivalPos="492.80" arrivalSpeed="12.17" duration="83.00" routeLength="990.53" waitingTime="1.00" waitingCount="1" stopTime="0.00" timeLoss="22.21" rerouteNo="0" devices="tripinfo_SN_137" vType="car" speedFactor="1.17" vaporized=""/>
    <tripinfo id="SN_124" depart="124.00" departLane="3i_0" departPos="10.10" departSpeed="0.00" departDelay="0.00" arrival="222.00" arrivalLane="1o_0" arrivalPos="492.80" arrivalSpeed="10.40" duration="98.00" routeLength="989.70" waitingTime="0.00" waitingCount="0" stopTime="0.00" timeLoss="23.89" rerouteNo="0" devices="tripinfo_SN_124" vType="truck" speedFactor="0.95" vaporized=""/>
    <tripinfo id="EW_141" depart="141.00" departLane="4i_0" departPos="4.10" departSpeed="0.00" departDelay="0.00" arrival="226.00" arrivalLane="2o_0" arrivalPos="492.80" arrivalSpeed="11.81" duration="85.00" routeLength="995.70" waitingTime="6.00" waitingCount="2" stopTime="0.00" timeLoss="19.90" rerouteNo="0" devices="tripinfo_EW_141" vType="car" speedFactor="1.10" vaporized=""/>
    <tripinfo id="NS_127" depart="128.00" departLane="2i_0" departPos="4.10" departSpeed="0.00" departDelay="1.00" arrival="233.00" arrivalLane="3o_0" arrivalPos="492.80" arrivalSpeed="8.64" duration="105.00" routeLength="995.70" waitingTime="10.00" waitingCount="2" stopTime="0.00" timeLoss="24.47" rerouteNo="0" devices="tripinfo_NS_127" vType="car" speedFactor="0.88" vaporized=""/>
    <tripinfo id="SN_138" depart="140.00" departLane="3i_0" departPos="4.10" departSpeed="0.00" departDelay="2.00" arrival="236.00" arrivalLane="2o_0" arrivalPos="492.80" arrivalSpeed="10.65" duration="96.00" routeLength="990.53" waitingTime="3.00" waitingCount="1" stopTime="0.00" timeLoss="26.55" rerouteNo="0" devices="tripinfo_SN_138" vType="car" speedFactor="1.02" vaporized=""/>
    <tripinfo id="NS_132" depart="132.00" departLane="2i_0" departPos="4.10" departSpeed="0.00" departDelay="0.00" arrival="237.00" arrivalLane="4o_0" arrivalPos="492.80" arrivalSpeed="9.17" duration="105.00" routeLength="990.53" waitingTime="2.00" waitingCount="1" stopTime="0.00" timeLoss="22.09" rerouteNo="0" devices="tripinfo_NS_132" vType="car" speedFactor="0.85" vaporized=""/>
    <tripinfo id="NS_147" depart="147.00" departLane="2i_0" departPos="4.10" departSpeed="0.00" departDelay="0.00" arrival="237.00" arrivalLane="1o_0" arrivalPos="492.80" arrivalSpeed="9.43" duration="90.00" routeLength="995.90" waitingTime="0.00" waitingCount="0" stopTime="0.00" timeLoss="10.75" rerouteNo="0" devices="tripinfo_NS_147" vType="car" speedFactor="0.90" vaporized=""/>
    <tripinfo id="NS_151" depart="151.00" departLane="2i_0" departPos="4.10" departSpeed="0.00" departDelay="0.00" arrival="239.00" arrivalLane="4o_0" arrivalPos="492.80" arrivalSpeed="12.63" duration="88.00" routeLength="990.53" waitingTime="0.00" waitingCount="0" stopTime="0.00" timeLoss="25.66" rerouteNo="0" devices="tripinfo_NS_151" vType="car" speedFactor="1.14" vaporized=""/>
    <tripinfo id="WE_145" depart="145.00" departLane="1i_0" departPos="4.10" departSpeed="0.00" departDelay="0.00" arrival="240.00" arrivalLane="2o_0" arrivalPos="492.80" arrivalSpeed="10.77" duration="95.00" routeLength="995.90" waitingTime="9.00" waitingCount="1" stopTime="0.00" timeLoss="23.67" rerouteNo="0" devices="tripinfo_WE_145" vType="car" speedFactor="1.00" vaporized=""/>
    <tripinfo id="EW_154" depart="154.00" departLane="4i_0" departPos="10.10" departSpeed="0.00" departDelay="0.00" arrival="245.00" arrivalLane="2o_0" arrivalPos="492.80" arrivalSpeed="10.75" duration="91.00" routeLength="989.70" waitingTime="0.00" waitingCount="0" stopTime="0.00" timeLoss="21.07" rerouteNo="0" devices="tripinfo_EW_154" vType="truck" speedFactor="1.01" vaporized=""/>
    <tripinfo id="WE_137" depart="137.00" departLane="1i_0" departPos="4.10" departSpeed="0.00" departDelay="0.00" arrival="246.00" arrivalLane="4o_0" arrivalPos="492.80" arrivalSpeed="8.78" duration="109.00" routeLength="995.70" waitingTime="11.00" waitingCount="1" stopTime="0.00" timeLoss="25.81" rerouteNo="0" devices="tripinfo_WE_137" vType="car" speedFactor="0.85" vaporized=""/>
    <tripinfo id="SN_144" depart="144.00" departLane="3i_0" departPos="4.10" departSpeed="0.00" departDelay="0.00" arrival="247.00" arrivalLane="1o_0" arrivalPos="492.80" arrivalSpeed="10.43" duration="103.00" routeLength="995.70" waitingTime="8.00" waitingCount="2" stopTime="0.00" timeLoss="32.50" rerouteNo="0" devices="tripinfo_SN_144" vType="car" speedFactor="1.00" vaporized=""/>
    <tripinfo id="EW_161" depart="161.00" departLane="4i_0" departPos="4.10" departSpeed="0.00" departDelay="0.00" arrival="247.00" arrivalLane="2o_0" arrivalPos="492.80" arrivalSpeed="10.76" duration="86.00" routeLength="995.70" waitingTime="0.00" waitingCount="0" stopTime="0.00" timeLoss="20.57" rerouteNo="0" devices="tripinfo_EW_161" vType="car" speedFactor="1.08" vaporized=""/>
    <tripinfo id="WE_156" depart="156.00" departLane="1i_0" departPos="4.10" departSpeed="0.00" departDelay="0.00" arrival="254.00" arrivalLane="4o_0" arrivalPos="492.80" arrivalSpeed="10.58" duration="98.00" routeLength="995.70" waitingTime="5.00" waitingCount="1" stopTime="0.00" timeLoss="25.03" rerouteNo="0" devices="tripinfo_WE_156" vType="car" speedFactor="0.97" vaporized=""/>
    <tripinfo id="SN_164" depart="164.00" departLane="3i_0" departPos="4.10" departSpeed="0.00" departDelay="0.00" arrival="256.00" arrivalLane="4o_0" arrivalPos="492.80" arrivalSpeed="12.40" duration="92.00" routeLength="995.90" waitingTime="5.00" waitingCount="2" stopTime="0.00" timeLoss="28.27" rerouteNo="0" devices="tripinfo_SN_164" vType="car" speedFactor="1.12" vaporized=""/>
    <tripinfo id="WE_169" depart="169.00" departLane="1i_0" departPos="4.10" departSpeed="0.00" departDelay="0.00" arrival="258.00" arrivalLane="4o_0" arrivalPos="492.80" arrivalSpeed="11.05" duration="89.00" routeLength="995.70" waitingTime="2.00" waitingCount="2" stopTime="0.00" timeLoss="18.93" rerouteNo="0" devices="tripinfo_WE_169" vType="car" speedFactor="1.02" vaporized=""/>
    <tripinfo id="WE_170" depart="172.00" departLane="1i_0" departPos="4.10" departSpeed="0.00" departDelay="2.00" arrival="263.00" arrivalLane="3o_0" arrivalPos="492.80" arrivalSpeed="9.15" duration="91.00" routeLength="990.53" waitingTime="0.00" waitingCount="0" stopTime="0.00" timeLoss="15.65" rerouteNo="0" devices="tripinfo_WE_170" vType="car" speedFactor="0.94" vaporized=""/>
    <tripinfo id="WE_175" depart="175.00" departLane="1i_0" departPos="4.10" departSpeed="0.00" departDelay="0.00" arrival="265.00" arrivalLane="3o_0" arrivalPos="492.80" arrivalSpeed="10.67" duration="90.00" routeLength="990.53" waitingTime="0.00" waitingCount="0" stopTime="0.00" timeLoss="21.60" rerouteNo="0" devices="tripinfo_WE_175" vType="car" speedFactor="1.04" vaporized=""/>
    <tripinfo id="SN_173" depart="174.00" departLane="3i_0" departPos="4.10" departSpeed="0.00" departDelay="1.00" arrival="267.00" arrivalLane="2o_0" arrivalPos="492.80" arrivalSpeed="9.04" duration="93.00" routeLength="990.53" waitingTime="0.00" waitingCount="0" stopTime="0.00" timeLoss="15.35" rerouteNo="0" devices="tripinfo_SN_173" vType="car" speedFactor="0.91" vaporized=""/>
    <tripinfo id="SN_171" depart="171.00" departLane="3i_0" departPos="4.10" departSpeed="0.00" departDelay="0.00" arrival="268.00" arrivalLane="4o_0" arrivalPos="492.80" arrivalSpeed="8.74" duration="97.00" routeLength="995.90" waitingTime="1.00" waitingCount="1" stopTime="0.00" timeLoss="16.69" rerouteNo="0" devices="tripinfo_SN_171" vType="car" speedFactor="0.88" vaporized=""/>
    <tripinfo id="EW_169" depart="169.00" departLane="4i_0" departPos="4.10" departSpeed="0.00" departDelay="0.00" arrival="269.00" arrivalLane="2o_0" arrivalPos="492.80" arrivalSpeed="10.18" duration="100.00" routeLength="995.70" waitingTime="12.00" waitingCount="1" stopTime="0.00" timeLoss="28.06" rerouteNo="0" devices="tripinfo_EW_169" vType="car" speedFactor="0.99" vaporized=""/>
    <tripinfo id="NS_179" depart="179.00" departLane="2i_0" departPos="4.10" departSpeed="0.00" departDelay="0.00" arrival="270.00" arrivalLane="4o_0" arrivalPos="492.80" arrivalSpeed="10.84" duration="91.00" routeLength="990.53" waitingTime="4.00" waitingCount="1" stopTime="0.00" timeLoss="21.67" rerouteNo="0" devices="tripinfo_NS_179" vType="car" speedFactor="1.02" vaporized=""/>
    <tripinfo id="EW_184" depart="184.00" departLane="4i_0" departPos="4.10" departSpeed="0.00" departDelay="0.00" arrival="272.00" arrivalLane="3o_0" arrivalPos="492.80" arrivalSpeed="11.21" duration="88.00" routeLength="995.90" waitingTime="2.00" waitingCount="1" stopTime="0.00" timeLoss="21.11" rerouteNo="0" devices="tripinfo_EW_184" vType="car" speedFactor="1.06" vaporized=""/>
    <tripinfo id="SN_174" depart="177.00" departLane="3i_0" departPos="4.10" departSpeed="0.00" departDelay="3.00" arrival="273.00" arrivalLane="1o_0" arrivalPos="492.80" arrivalSpeed="9.05" duration="96.00" routeLength="995.70" waitingTime="0.00" waitingCount="0" stopTime="0.00" timeLoss="18.67" rerouteNo="0" devices="tripinfo_SN_174" vType="car" speedFactor="0.91" vaporized=""/>
    <tripinfo id="WE_182" depart="182.00" departLane="1i_0" departPos="4.10" departSpeed="0.00" departDelay="0.00" arrival="274.00" arrivalLane="4o_0" arrivalPos="492.80" arrivalSpeed="10.16" duration="92.00" routeLength="995.70" waitingTime="1.00" waitingCount="1" stopTime="0.00" timeLoss="18.66" rerouteNo="0" devices="tripinfo_WE_182" vType="car" speedFactor="0.97" vaporized=""/>
    <tripinfo id="SN_180" depart="182.00" departLane="3i_0" departPos="10.10" departSpeed="0.00" departDelay="2.00" arrival="276.00" arrivalLane="4o_0" arrivalPos="492.80" arrivalSpeed="10.81" duration="94.00" routeLength="989.90" waitingTime="1.00" waitingCount="1" stopTime="0.00" timeLoss="24.42" rerouteNo="0" devices="tripinfo_SN_180" vType="truck" speedFactor="1.01" vaporized=""/>
    <tripinfo id="EW_187" depart="189.00" departLane="4i_0" departPos="4.10" departSpeed="0.00" departDelay="2.00" arrival="276.00" arrivalLane="1o_0" arrivalPos="492.80" arrivalSpeed="10.87" duration="87.00" routeLength="990.53" waitingTime="2.00" waitingCount="1" stopTime="0.00" timeLoss="18.44" rerouteNo="0" devices="tripinfo_EW_187" vType="car" speedFactor="1.03" vaporized=""/>
    <tripinfo id="WE_188" depart="188.00" departLane="1i_0" departPos="4.10" departSpeed="0.00" departDelay="0.00" arrival="280.00" arrivalLane="3o_0" arrivalPos="492.80" arrivalSpeed="10.05" duration="92.00" routeLength="990.53" waitingTime="2.00" waitingCount="2" stopTime="0.00" timeLoss="19.92" rerouteNo="0" devices="tripinfo_WE_188" vType="car" speedFactor="0.98" vaporized=""/>
    <tripinfo id="WE_196" depart="196.00" departLane="1i_0" departPos="10.10" departSpeed="0.00" departDelay="0.00" arrival="281.00" arrivalLane="2o_0" arrivalPos="492.80" arrivalSpeed="10.53" duration="85.00" routeLength="989.90" waitingTime="0.00" waitingCount="0" stopTime="0.00" timeLoss="13.84" rerouteNo="0" devices="tripinfo_WE_196" vType="truck" speedFactor="1.00" vaporized=""/>