<?xml version="1.0" encoding="UTF-8"?>

<!-- generated on 2024-05-04 18:34:58 by Eclipse SUMO sumo Version 1.19.0
<configuration xmlns:xsi="http://www.w3.org/2001/XMLSchema-instance" xsi:noNamespaceSchemaLocation="http://sumo.dlr.de/xsd/sumoConfiguration.xsd">

    <input>
        <net-file value="test5.net.xml"/>
        <route-files value="route_gen.rou.xml"/>
    </input>

    <output>
        <tripinfo-output value="tripinfo_epi398.xml"/>
    </output>

    <report>
        <no-warnings value="true"/>
    </report>

    <traci_server>
        <remote-port value="54627"/>
    </traci_server>

</configuration>
-->

<tripinfos xmlns:xsi="http://www.w3.org/2001/XMLSchema-instance" xsi:noNamespaceSchemaLocation="http://sumo.dlr.de/xsd/tripinfo_file.xsd">
    <tripinfo id="NS_9" depart="9.00" departLane="2i_0" departPos="4.10" departSpeed="0.00" departDelay="0.00" arrival="93.00" arrivalLane="4o_0" arrivalPos="492.80" arrivalSpeed="9.15" duration="84.00" routeLength="990.53" waitingTime="0.00" waitingCount="0" stopTime="0.00" timeLoss="9.06" rerouteNo="0" devices="tripinfo_NS_9" vType="car" speedFactor="0.94" vaporized=""/>
    <tripinfo id="WE_9" depart="9.00" departLane="1i_0" departPos="4.10" departSpeed="0.00" departDelay="0.00" arrival="95.00" arrivalLane="4o_0" arrivalPos="492.80" arrivalSpeed="11.72" duration="86.00" routeLength="995.70" waitingTime="2.00" waitingCount="1" stopTime="0.00" timeLoss="18.94" rerouteNo="0" devices="tripinfo_WE_9" vType="car" speedFactor="1.06" vaporized=""/>
    <tripinfo id="SN_11" depart="11.00" departLane="3i_0" departPos="4.10" departSpeed="0.00" departDelay="0.00" arrival="95.00" arrivalLane="1o_0" arrivalPos="492.80" arrivalSpeed="10.25" duration="84.00" routeLength="995.70" waitingTime="1.00" waitingCount="1" stopTime="0.00" timeLoss="14.17" rerouteNo="0" devices="tripinfo_SN_11" vType="car" speedFactor="1.01" vaporized=""/>
    <tripinfo id="NS_14" depart="14.00" departLane="2i_0" departPos="4.10" departSpeed="0.00" departDelay="0.00" arrival="97.00" arrivalLane="1o_0" arrivalPos="492.80" arrivalSpeed="11.96" duration="83.00" routeLength="995.90" waitingTime="1.00" waitingCount="1" stopTime="0.00" timeLoss="17.41" rerouteNo="0" devices="tripinfo_NS_14" vType="car" speedFactor="1.08" vaporized=""/>
    <tripinfo id="EW_15" depart="15.00" departLane="4i_0" departPos="4.10" departSpeed="0.00" departDelay="0.00" arrival="100.00" arrivalLane="1o_0" arrivalPos="492.80" arrivalSpeed="11.33" duration="85.00" routeLength="990.53" waitingTime="5.00" waitingCount="1" stopTime="0.00" timeLoss="15.97" rerouteNo="0" devices="tripinfo_EW_15" vType="car" speedFactor="1.03" vaporized=""/>
    <tripinfo id="NS_24" depart="24.00" departLane="2i_0" departPos="4.10" departSpeed="0.00" departDelay="0.00" arrival="109.00" arrivalLane="4o_0" arrivalPos="492.80" arrivalSpeed="9.93" duration="85.00" routeLength="990.53" waitingTime="0.00" waitingCount="0" stopTime="0.00" timeLoss="9.90" rerouteNo="0" devices="tripinfo_NS_24" vType="car" speedFactor="0.94" vaporized=""/>
    <tripinfo id="SN_16" depart="16.00" departLane="3i_0" departPos="4.10" departSpeed="0.00" departDelay="0.00" arrival="110.00" arrivalLane="2o_0" arrivalPos="492.80" arrivalSpeed="8.73" duration="94.00" routeLength="990.53" waitingTime="0.00" waitingCount="0" stopTime="0.00" timeLoss="8.61" rerouteNo="0" devices="tripinfo_SN_16" vType="car" speedFactor="0.83" vaporized=""/>
    <tripinfo id="NS_18" depart="18.00" departLane="2i_0" departPos="4.10" departSpeed="0.00" departDelay="0.00" arrival="110.00" arrivalLane="3o_0" arrivalPos="492.80" arrivalSpeed="9.66" duration="92.00" routeLength="995.70" waitingTime="0.00" waitingCount="0" stopTime="0.00" timeLoss="11.45" rerouteNo="0" devices="tripinfo_NS_18" vType="car" speedFactor="0.89" vaporized=""/>
    <tripinfo id="SN_17" depart="19.00" departLane="3i_0" departPos="4.10" departSpeed="0.00" departDelay="2.00" arrival="111.00" arrivalLane="2o_0" arrivalPos="492.80" arrivalSpeed="10.63" duration="92.00" routeLength="990.53" waitingTime="0.00" waitingCount="0" stopTime="0.00" timeLoss="24.75" rerouteNo="0" devices="tripinfo_SN_17" vType="car" speedFactor="1.05" vaporized=""/>
    <tripinfo id="SN_30" depart="30.00" departLane="3i_0" departPos="4.10" departSpeed="0.00" departDelay="0.00" arrival="111.00" arrivalLane="4o_0" arrivalPos="492.80" arrivalSpeed="10.84" duration="81.00" routeLength="995.90" waitingTime="0.00" waitingCount="0" stopTime="0.00" timeLoss="11.77" rerouteNo="0" devices="tripinfo_SN_30" vType="car" speedFactor="1.03" vaporized=""/>
    <tripinfo id="SN_32" depart="32.00" departLane="3i_0" departPos="4.10" departSpeed="0.00" departDelay="0.00" arrival="113.00" arrivalLane="2o_0" arrivalPos="492.80" arrivalSpeed="11.54" duration="81.00" routeLength="990.53" waitingTime="1.00" waitingCount="1" stopTime="0.00" timeLoss="13.51" rerouteNo="0" devices="tripinfo_SN_32" vType="car" speedFactor="1.05" vaporized=""/>
    <tripinfo id="NS_38" depart="38.00" departLane="2i_0" departPos="4.10" departSpeed="0.00" departDelay="0.00" arrival="116.00" arrivalLane="1o_0" arrivalPos="492.80" arrivalSpeed="11.24" duration="78.00" routeLength="995.90" waitingTime="1.00" waitingCount="1" stopTime="0.00" timeLoss="14.77" rerouteNo="0" devices="tripinfo_NS_38" vType="car" speedFactor="1.12" vaporized=""/>
    <tripinfo id="WE_26" depart="29.00" departLane="1i_0" departPos="4.10" departSpeed="0.00" departDelay="3.00" arrival="122.00" arrivalLane="3o_0" arrivalPos="492.80" arrivalSpeed="11.15" duration="93.00" routeLength="990.53" waitingTime="4.00" waitingCount="1" stopTime="0.00" timeLoss="28.56" rerouteNo="0" devices="tripinfo_WE_26" vType="car" speedFactor="1.09" vaporized=""/>
    <tripinfo id="WE_25" depart="25.00" departLane="1i_0" departPos="10.10" departSpeed="0.00" departDelay="0.00" arrival="128.00" arrivalLane="4o_0" arrivalPos="492.80" arrivalSpeed="10.03" duration="103.00" routeLength="989.70" waitingTime="7.00" waitingCount="2" stopTime="0.00" timeLoss="26.85" rerouteNo="0" devices="tripinfo_WE_25" vType="truck" speedFactor="0.93" vaporized=""/>
    <tripinfo id="NS_40" depart="41.00" departLane="2i_0" departPos="4.10" departSpeed="0.00" departDelay="1.00" arrival="128.00" arrivalLane="3o_0" arrivalPos="492.80" arrivalSpeed="9.84" duration="87.00" routeLength="995.70" waitingTime="1.00" waitingCount="1" stopTime="0.00" timeLoss="15.72" rerouteNo="0" devices="tripinfo_NS_40" vType="car" speedFactor="0.99" vaporized=""/>
    <tripinfo id="SN_52" depart="52.00" departLane="3i_0" departPos="4.10" departSpeed="0.00" departDelay="0.00" arrival="134.00" arrivalLane="2o_0" arrivalPos="492.80" arrivalSpeed="10.69" duration="82.00" routeLength="990.53" waitingTime="0.00" waitingCount="0" stopTime="0.00" timeLoss="9.68" rerouteNo="0" devices="tripinfo_SN_52" vType="car" speedFactor="0.97" vaporized=""/>
    <tripinfo id="SN_41" depart="41.00" departLane="3i_0" departPos="4.10" departSpeed="0.00" departDelay="0.00" arrival="136.00" arrivalLane="4o_0" arrivalPos="492.80" arrivalSpeed="10.10" duration="95.00" routeLength="995.90" waitingTime="2.00" waitingCount="1" stopTime="0.00" timeLoss="18.08" rerouteNo="0" devices="tripinfo_SN_41" vType="car" speedFactor="0.93" vaporized=""/>
    <tripinfo id="NS_42" depart="45.00" departLane="2i_0" departPos="10.10" departSpeed="0.00" departDelay="3.00" arrival="138.00" arrivalLane="1o_0" arrivalPos="492.80" arrivalSpeed="10.62" duration="93.00" routeLength="989.90" waitingTime="0.00" waitingCount="0" stopTime="0.00" timeLoss="20.06" rerouteNo="0" devices="tripinfo_NS_42" vType="truck" speedFactor="0.97" vaporized=""/>
    <tripinfo id="WE_42" depart="42.00" departLane="1i_0" departPos="4.10" departSpeed="0.00" departDelay="0.00" arrival="148.00" arrivalLane="4o_0" arrivalPos="492.80" arrivalSpeed="9.22" duration="106.00" routeLength="995.70" waitingTime="5.00" waitingCount="1" stopTime="0.00" timeLoss="25.66" rerouteNo="0" devices="tripinfo_WE_42" vType="car" speedFactor="0.88" vaporized=""/>
    <tripinfo id="EW_48" depart="49.00" departLane="4i_0" departPos="4.10" departSpeed="0.00" departDelay="1.00" arrival="148.00" arrivalLane="3o_0" arrivalPos="492.80" arrivalSpeed="10.31" duration="99.00" routeLength="995.90" waitingTime="13.00" waitingCount="1" stopTime="0.00" timeLoss="28.80" rerouteNo="0" devices="tripinfo_EW_48" vType="car" speedFactor="1.02" vaporized=""/>
    <tripinfo id="EW_47" depart="47.00" departLane="4i_0" departPos="4.10" departSpeed="0.00" departDelay="0.00" arrival="150.00" arrivalLane="2o_0" arrivalPos="492.80" arrivalSpeed="9.26" duration="103.00" routeLength="995.70" waitingTime="13.00" waitingCount="1" stopTime="0.00" timeLoss="27.41" rerouteNo="0" devices="tripinfo_EW_47" vType="car" speedFactor="0.94" vaporized=""/>
    <tripinfo id="SN_53" depart="55.00" departLane="3i_0" departPos="4.10" departSpeed="0.00" departDelay="2.00" arrival="150.00" arrivalLane="4o_0" arrivalPos="492.80" arrivalSpeed="8.55" duration="95.00" routeLength="995.90" waitingTime="1.00" waitingCount="1" stopTime="0.00" timeLoss="14.10" rerouteNo="0" devices="tripinfo_SN_53" vType="car" speedFactor="0.87" vaporized=""/>
    <tripinfo id="NS_47" depart="49.00" departLane="2i_0" departPos="4.10" departSpeed="0.00" departDelay="2.00" arrival="152.00" arrivalLane="4o_0" arrivalPos="492.80" arrivalSpeed="12.07" duration="103.00" routeLength="990.53" waitingTime="3.00" waitingCount="3" stopTime="0.00" timeLoss="41.77" rerouteNo="0" devices="tripinfo_NS_47" vType="car" speedFactor="1.16" vaporized=""/>
    <tripinfo id="EW_49" depart="53.00" departLane="4i_0" departPos="4.10" departSpeed="0.00" departDelay="4.00" arrival="152.00" arrivalLane="2o_0" arrivalPos="492.80" arrivalSpeed="10.56" duration="99.00" routeLength="995.70" waitingTime="11.00" waitingCount="1" stopTime="0.00" timeLoss="28.58" rerouteNo="0" devices="tripinfo_EW_49" vType="car" speedFactor="1.01" vaporized=""/>
    <tripinfo id="SN_56" depart="57.00" departLane="3i_0" departPos="4.10" departSpeed="0.00" departDelay="1.00" arrival="152.00" arrivalLane="1o_0" arrivalPos="492.80" arrivalSpeed="11.62" duration="95.00" routeLength="995.70" waitingTime="7.00" waitingCount="3" stopTime="0.00" timeLoss="32.54" rerouteNo="0" devices="tripinfo_SN_56" vType="car" speedFactor="1.13" vaporized=""/>
    <tripinfo id="EW_53" depart="56.00" departLane="4i_0" departPos="4.10" departSpeed="0.00" departDelay="3.00" arrival="159.00" arrivalLane="3o_0" arrivalPos="492.80" arrivalSpeed="9.64" duration="103.00" routeLength="995.90" waitingTime="7.00" waitingCount="1" stopTime="0.00" timeLoss="22.73" rerouteNo="0" devices="tripinfo_EW_53" vType="car" speedFactor="0.89" vaporized=""/>
    <tripinfo id="NS_53" depart="53.00" departLane="2i_0" departPos="4.10" departSpeed="0.00" departDelay="0.00" arrival="160.00" arrivalLane="4o_0" arrivalPos="492.80" arrivalSpeed="8.51" duration="107.00" routeLength="990.53" waitingTime="2.00" waitingCount="2" stopTime="0.00" timeLoss="21.70" rerouteNo="0" devices="tripinfo_NS_53" vType="car" speedFactor="0.83" vaporized=""/>
    <tripinfo id="WE_74" depart="74.00" departLane="1i_0" departPos="4.10" departSpeed="0.00" departDelay="0.00" arrival="160.00" arrivalLane="3o_0" arrivalPos="492.80" arrivalSpeed="11.60" duration="86.00" routeLength="990.53" waitingTime="0.00" waitingCount="0" stopTime="0.00" timeLoss="26.01" rerouteNo="0" devices="tripinfo_WE_74" vType="car" speedFactor="1.17" vaporized=""/>
    <tripinfo id="WE_62" depart="62.00" departLane="1i_0" departPos="4.10" departSpeed="0.00" departDelay="0.00" arrival="162.00" arrivalLane="4o_0" arrivalPos="492.80" arrivalSpeed="11.91" duration="100.00" routeLength="995.70" waitingTime="7.00" waitingCount="1" stopTime="0.00" timeLoss="39.54" rerouteNo="0" devices="tripinfo_WE_62" vType="car" speedFactor="1.18" vaporized=""/>
    <tripinfo id="NS_55" depart="57.00" departLane="2i_0" departPos="10.10" departSpeed="0.00" departDelay="2.00" arrival="164.00" arrivalLane="4o_0" arrivalPos="492.80" arrivalSpeed="10.70" duration="107.00" routeLength="984.53" waitingTime="2.00" waitingCount="2" stopTime="0.00" timeLoss="35.19" rerouteNo="0" devices="tripinfo_NS_55" vType="truck" speedFactor="0.97" vaporized=""/>
    <tripinfo id="EW_86" depart="86.00" departLane="4i_0" departPos="4.10" departSpeed="0.00" departDelay="0.00" arrival="164.00" arrivalLane="2o_0" arrivalPos="492.80" arrivalSpeed="11.19" duration="78.00" routeLength="995.70" waitingTime="0.00" waitingCount="0" stopTime="0.00" timeLoss="13.17" rerouteNo="0" devices="tripinfo_EW_86" vType="car" speedFactor="1.10" vaporized=""/>
    <tripinfo id="EW_55" depart="59.00" departLane="4i_0" departPos="10.10" departSpeed="0.00" departDelay="4.00" arrival="165.00" arrivalLane="3o_0" arrivalPos="492.80" arrivalSpeed="10.32" duration="106.00" routeLength="989.90" waitingTime="4.00" waitingCount="2" stopTime="0.00" timeLoss="32.34" rerouteNo="0" devices="tripinfo_EW_55" vType="truck" speedFactor="0.96" vaporized=""/>
    <tripinfo id="NS_57" depart="61.00" departLane="2i_0" departPos="4.10" departSpeed="0.00" departDelay="4.00" arrival="167.00" arrivalLane="4o_0" arrivalPos="492.80" arrivalSpeed="9.44" duration="106.00" routeLength="990.53" waitingTime="1.00" waitingCount="1" stopTime="0.00" timeLoss="30.52" rerouteNo="0" devices="tripinfo_NS_57" vType="car" speedFactor="0.93" vaporized=""/>
    <tripinfo id="EW_62" depart="63.00" departLane="4i_0" departPos="4.10" departSpeed="0.00" departDelay="1.00" arrival="167.00" arrivalLane="3o_0" arrivalPos="492.80" arrivalSpeed="11.69" duration="104.00" routeLength="995.90" waitingTime="3.00" waitingCount="2" stopTime="0.00" timeLoss="42.64" rerouteNo="0" devices="tripinfo_EW_62" vType="car" speedFactor="1.15" vaporized=""/>
    <tripinfo id="WE_90" depart="90.00" departLane="1i_0" departPos="4.10" departSpeed="0.00" departDelay="0.00" arrival="169.00" arrivalLane="2o_0" arrivalPos="492.80" arrivalSpeed="10.31" duration="79.00" routeLength="995.90" waitingTime="0.00" waitingCount="0" stopTime="0.00" timeLoss="10.47" rerouteNo="0" devices="tripinfo_WE_90" vType="car" speedFactor="1.03" vaporized=""/>
    <tripinfo id="EW_92" depart="93.00" departLane="4i_0" departPos="4.10" departSpeed="0.00" departDelay="1.00" arrival="171.00" arrivalLane="1o_0" arrivalPos="492.80" arrivalSpeed="12.12" duration="78.00" routeLength="990.53" waitingTime="0.00" waitingCount="0" stopTime="0.00" timeLoss="13.64" rerouteNo="0" devices="tripinfo_EW_92" vType="car" speedFactor="1.09" vaporized=""/>
    <tripinfo id="SN_84" depart="84.00" departLane="3i_0" departPos="4.10" departSpeed="0.00" departDelay="0.00" arrival="173.00" arrivalLane="1o_0" arrivalPos="492.80" arrivalSpeed="12.45" duration="89.00" routeLength="995.70" waitingTime="13.00" waitingCount="1" stopTime="0.00" timeLoss="28.80" rerouteNo="0" devices="tripinfo_SN_84" vType="car" speedFactor="1.18" vaporized=""/>
    <tripinfo id="NS_72" depart="72.00" departLane="2i_0" departPos="4.10" departSpeed="0.00" departDelay="0.00" arrival="174.00" arrivalLane="3o_0" arrivalPos="492.80" arrivalSpeed="10.26" duration="102.00" routeLength="995.70" waitingTime="5.00" waitingCount="3" stopTime="0.00" timeLoss="31.59" rerouteNo="0" devices="tripinfo_NS_72" vType="car" speedFactor="1.01" vaporized=""/>
    <tripinfo id="EW_90" depart="90.00" departLane="4i_0" departPos="4.10" departSpeed="0.00" departDelay="0.00" arrival="175.00" arrivalLane="2o_0" arrivalPos="492.80" arrivalSpeed="10.02" duration="85.00" routeLength="995.70" waitingTime="0.00" waitingCount="0" stopTime="0.00" timeLoss="11.15" rerouteNo="0" devices="tripinfo_EW_90" vType="car" speedFactor="0.96" vaporized=""/>
    <tripinfo id="NS_77" depart="77.00" departLane="2i_0" departPos="10.10" departSpeed="0.00" departDelay="0.00" arrival="181.00" arrivalLane="4o_0" arrivalPos="492.80" arrivalSpeed="10.74" duration="104.00" routeLength="984.53" waitingTime="2.00" waitingCount="2" stopTime="0.00" timeLoss="33.30" rerouteNo="0" devices="tripinfo_NS_77" vType="truck" speedFactor="1.00" vaporized=""/>
    <tripinfo id="SN_89" depart="89.00" departLane="3i_0" departPos="4.10" departSpeed="0.00" departDelay="0.00" arrival="186.00" arrivalLane="1o_0" arrivalPos="492.80" arrivalSpeed="9.29" duration="97.00" routeLength="995.70" waitingTime="4.00" waitingCount="1" stopTime="0.00" timeLoss="18.70" rerouteNo="0" devices="tripinfo_SN_89" vType="car" speedFactor="0.90" vaporized=""/>
    <tripinfo id="SN_97" depart="97.00" departLane="3i_0" departPos="4.10" departSpeed="0.00" departDelay="0.00" arrival="186.00" arrivalLane="2o_0" arrivalPos="492.80" arrivalSpeed="11.64" duration="89.00" routeLength="990.53" waitingTime="3.00" waitingCount="2" stopTime="0.00" timeLoss="23.71" rerouteNo="0" devices="tripinfo_SN_97" vType="car" speedFactor="1.09" vaporized=""/>
    <tripinfo id="SN_93" depart="93.00" departLane="3i_0" departPos="4.10" departSpeed="0.00" departDelay="0.00" arrival="188.00" arrivalLane="1o_0" arrivalPos="492.80" arrivalSpeed="10.71" duration="95.00" routeLength="995.70" waitingTime="5.00" waitingCount="2" stopTime="0.00" timeLoss="27.04" rerouteNo="0" devices="tripinfo_SN_93" vType="car" speedFactor="1.04" vaporized=""/>
    <tripinfo id="NS_83" depart="83.00" departLane="2i_0" departPos="4.10" departSpeed="0.00" departDelay="0.00" arrival="191.00" arrivalLane="1o_0" arrivalPos="492.80" arrivalSpeed="10.74" duration="108.00" routeLength="995.90" waitingTime="6.00" waitingCount="4" stopTime="0.00" timeLoss="38.26" rerouteNo="0" devices="tripinfo_NS_83" vType="car" speedFactor="1.02" vaporized=""/>
    <tripinfo id="EW_102" depart="102.00" departLane="4i_0" departPos="4.10" departSpeed="0.00" departDelay="0.00" arrival="193.00" arrivalLane="3o_0" arrivalPos="492.80" arrivalSpeed="9.04" duration="91.00" routeLength="995.90" waitingTime="0.00" waitingCount="0" stopTime="0.00" timeLoss="9.75" rerouteNo="0" devices="tripinfo_EW_102" vType="car" speedFactor="0.88" vaporized=""/>
    <tripinfo id="WE_102" depart="102.00" departLane="1i_0" departPos="10.10" departSpeed="0.00" departDelay="0.00" arrival="196.00" arrivalLane="2o_0" arrivalPos="492.80" arrivalSpeed="10.31" duration="94.00" routeLength="989.90" waitingTime="0.00" waitingCount="0" stopTime="0.00" timeLoss="19.13" rerouteNo="0" devices="tripinfo_WE_102" vType="truck" speedFactor="0.95" vaporized=""/>
    <tripinfo id="NS_84" depart="86.00" departLane="2i_0" departPos="4.10" departSpeed="0.00" departDelay="2.00" arrival="198.00" arrivalLane="3o_0" arrivalPos="492.80" arrivalSpeed="9.99" duration="112.00" routeLength="995.70" waitingTime="3.00" waitingCount="2" stopTime="0.00" timeLoss="38.72" rerouteNo="0" devices="tripinfo_NS_84" vType="car" speedFactor="0.97" vaporized=""/>
    <tripinfo id="EW_120" depart="120.00" departLane="4i_0" departPos="4.10" departSpeed="0.00" departDelay="0.00" arrival="198.00" arrivalLane="2o_0" arrivalPos="492.80" arrivalSpeed="11.54" duration="78.00" routeLength="995.70" waitingTime="0.00" waitingCount="0" stopTime="0.00" timeLoss="12.94" rerouteNo="0" devices="tripinfo_EW_120" vType="car" speedFactor="1.10" vaporized=""/>
    <tripinfo id="SN_113" depart="113.00" departLane="3i_0" departPos="4.10" departSpeed="0.00" departDelay="0.00" arrival="199.00" arrivalLane="2o_0" arrivalPos="492.80" arrivalSpeed="12.25" duration="86.00" routeLength="990.53" waitingTime="4.00" waitingCount="1" stopTime="0.00" timeLoss="25.90" rerouteNo="0" devices="tripinfo_SN_113" vType="car" speedFactor="1.17" vaporized=""/>
    <tripinfo id="SN_99" depart="100.00" departLane="3i_0" departPos="4.10" departSpeed="0.00" departDelay="1.00" arrival="202.00" arrivalLane="1o_0" arrivalPos="492.80" arrivalSpeed="10.50" duration="102.00" routeLength="995.70" waitingTime="7.00" waitingCount="3" stopTime="0.00" timeLoss="30.38" rerouteNo="0" devices="tripinfo_SN_99" vType="car" speedFactor="1.00" vaporized=""/>
    <tripinfo id="NS_93" depart="93.00" departLane="2i_0" departPos="4.10" departSpeed="0.00" departDelay="0.00" arrival="203.00" arrivalLane="1o_0" arrivalPos="492.80" arrivalSpeed="10.78" duration="110.00" routeLength="995.90" waitingTime="2.00" waitingCount="2" stopTime="0.00" timeLoss="41.76" rerouteNo="0" devices="tripinfo_NS_93" vType="car" speedFactor="1.04" vaporized=""/>
    <tripinfo id="WE_116" depart="116.00" departLane="1i_0" departPos="4.10" departSpeed="0.00" departDelay="0.00" arrival="211.00" arrivalLane="3o_0" arrivalPos="492.80" arrivalSpeed="10.52" duration="95.00" routeLength="990.53" waitingTime="2.00" waitingCount="2" stopTime="0.00" timeLoss="25.80" rerouteNo="0" devices="tripinfo_WE_116" vType="car" speedFactor="1.02" vaporized=""/>
    <tripinfo id="WE_109" depart="109.00" departLane="1i_0" departPos="10.10" departSpeed="0.00" departDelay="0.00" arrival="212.00" arrivalLane="4o_0" arrivalPos="492.80" arrivalSpeed="9.83" duration="103.00" routeLength="989.70" waitingTime="3.00" waitingCount="1" stopTime="0.00" timeLoss="26.46" rerouteNo="0" devices="tripinfo_WE_109" vType="truck" speedFactor="0.93" vaporized=""/>
    <tripinfo id="SN_121" depart="122.00" departLane="3i_0" departPos="4.10" departSpeed="0.00" departDelay="1.00" arrival="214.00" arrivalLane="4o_0" arrivalPos="492.80" arrivalSpeed="10.24" duration="92.00" routeLength="995.90" waitingTime="3.00" waitingCount="1" stopTime="0.00" timeLoss="20.78" rerouteNo="0" devices="tripinfo_SN_121" vType="car" speedFactor="1.00" vaporized=""/>
    <tripinfo id="NS_113" depart="113.00" departLane="2i_0" departPos="10.10" departSpeed="0.00" departDelay="0.00" arrival="219.00" arrivalLane="1o_0" arrivalPos="492.80" arrivalSpeed="10.03" duration="106.00" routeLength="989.90" waitingTime="3.00" waitingCount="3" stopTime="0.00" timeLoss="30.12" rerouteNo="0" devices="tripinfo_NS_113" vType="truck" speedFactor="0.93" vaporized=""/>
    <tripinfo id="NS_121" depart="121.00" departLane="2i_0" departPos="4.10" departSpeed="0.00" departDelay="0.00" arrival="219.00" arrivalLane="4o_0" arrivalPos="492.80" arrivalSpeed="11.05" duration="98.00" routeLength="990.53" waitingTime="3.00" waitingCount="3" stopTime="0.00" timeLoss="27.17" rerouteNo="0" devices="tripinfo_NS_121" vType="car" speedFactor="1.00" vaporized=""/>
    <tripinfo id="WE_129" depart="131.00" departLane="1i_0" departPos="4.10" departSpeed="0.00" departDelay="2.00" arrival="220.00" arrivalLane="4o_0" arrivalPos="492.80" arrivalSpeed="12.34" duration="89.00" routeLength="995.70" waitingTime="3.00" waitingCount="2" stopTime="0.00" timeLoss="27.12" rerouteNo="0" devices="tripinfo_WE_129" vType="car" speedFactor="1.14" vaporized=""/>
    <tripinfo id="EW_131" depart="131.00" departLane="4i_0" departPos="4.10" departSpeed="0.00" departDelay="0.00" arrival="220.00" arrivalLane="3o_0" arrivalPos="492.80" arrivalSpeed="11.08" duration="89.00" routeLength="995.90" waitingTime="2.00" waitingCount="1" stopTime="0.00" timeLoss="19.43" rerouteNo="0" devices="tripinfo_EW_131" vType="car" speedFactor="1.02" vaporized=""/>
    <tripinfo id="WE_128" depart="128.00" departLane="1i_0" departPos="4.10" departSpeed="0.00" departDelay="0.00" arrival="221.00" arrivalLane="2o_0" arrivalPos="492.80" arrivalSpeed="8.99" duration="93.00" routeLength="995.90" waitingTime="0.00" waitingCount="0" stopTime="0.00" timeLoss="13.65" rerouteNo="0" devices="tripinfo_WE_128" vType="car" speedFactor="0.90" vaporized=""/>
    <tripinfo id="WE_136" depart="138.00" departLane="1i_0" departPos="4.10" departSpeed="0.00" departDelay="2.00" arrival="222.00" arrivalLane="2o_0" arrivalPos="492.80" arrivalSpeed="11.84" duration="84.00" routeLength="995.90" waitingTime="0.00" waitingCount="0" stopTime="0.00" timeLoss="18.79" rerouteNo="0" devices="tripinfo_WE_136" vType="car" speedFactor="1.08" vaporized=""/>
    <tripinfo id="NS_135" depart="135.00" departLane="2i_0" departPos="10.10" departSpeed="0.00" departDelay="0.00" arrival="230.00" arrivalLane="4o_0" arrivalPos="492.80" arrivalSpeed="10.67" duration="95.00" routeLength="984.53" waitingTime="2.00" waitingCount="2" stopTime="0.00" timeLoss="23.54" rerouteNo="0" devices="tripinfo_NS_135" vType="truck" speedFactor="0.98" vaporized=""/>
    <tripinfo id="NS_143" depart="143.00" departLane="2i_0" departPos="4.10" departSpeed="0.00" departDelay="0.00" arrival="232.00" arrivalLane="4o_0" arrivalPos="492.80" arrivalSpeed="12.13" duration="89.00" routeLength="990.53" waitingTime="1.00" waitingCount="1" stopTime="0.00" timeLoss="26.00" rerouteNo="0" devices="tripinfo_NS_143" vType="car" speedFactor="1.12" vaporized=""/>
    <tripinfo id="EW_154" depart="154.00" departLane="4i_0" departPos="4.10" departSpeed="0.00" departDelay="0.00" arrival="234.00" arrivalLane="3o_0" arrivalPos="492.80" arrivalSpeed="10.25" duration="80.00" routeLength="995.90" waitingTime="0.00" waitingCount="0" stopTime="0.00" timeLoss="8.51" rerouteNo="0" devices="tripinfo_EW_154" vType="car" speedFactor="0.99" vaporized=""/>
    <tripinfo id="NS_151" depart="152.00" departLane="2i_0" departPos="4.10" departSpeed="0.00" departDelay="1.00" arrival="242.00" arrivalLane="3o_0" arrivalPos="492.80" arrivalSpeed="10.66" duration="90.00" routeLength="995.70" waitingTime="1.00" waitingCount="1" stopTime="0.00" timeLoss="20.01" rerouteNo="0" devices="tripinfo_NS_151" vType="car" speedFactor="1.02" vaporized=""/>
    <tripinfo id="SN_158" depart="160.00" departLane="3i_0" departPos="4.10" departSpeed="0.00" departDelay="2.00" arrival="250.00" arrivalLane="1o_0" arrivalPos="492.80" arrivalSpeed="9.81" duration="90.00" routeLength="995.70" waitingTime="0.00" waitingCount="0" stopTime="0.00" timeLoss="14.62" rerouteNo="0" devices="tripinfo_SN_158" vType="car" speedFactor="0.94" vaporized=""/>
    <tripinfo id="SN_163" depart="165.00" departLane="3i_0" departPos="4.10" departSpeed="0.00" departDelay="2.00" arrival="255.00" arrivalLane="4o_0" arrivalPos="492.80" arrivalSpeed="8.64" duration="90.00" routeLength="995.90" waitingTime="0.00" waitingCount="0" stopTime="0.00" timeLoss="9.54" rerouteNo="0" devices="tripinfo_SN_163" vType="car" speedFactor="0.88" vaporized=""/>
    <tripinfo id="NS_164" depart="164.00" departLane="2i_0" departPos="10.10" departSpeed="0.00" departDelay="0.00" arrival="259.00" arrivalLane="1o_0" arrivalPos="492.80" arrivalSpeed="10.40" duration="95.00" routeLength="989.90" waitingTime="1.00" waitingCount="1" stopTime="0.00" timeLoss="20.36" rerouteNo="0" devices="tripinfo_NS_164" vType="truck" speedFactor="0.95" vaporized=""/>
    <tripinfo id="EW_183" depart="183.00" departLane="4i_0" departPos="4.10" departSpeed="0.00" departDelay="0.00" arrival="261.00" arrivalLane="2o_0" arrivalPos="492.80" arrivalSpeed="10.78" duration="78.00" routeLength="995.70" waitingTime="0.00" waitingCount="0" stopTime="0.00" timeLoss="9.72" rerouteNo="0" devices="tripinfo_EW_183" vType="car" speedFactor="1.04" vaporized=""/>
    <tripinfo id="NS_165" depart="169.00" departLane="2i_0" departPos="10.10" departSpeed="0.00" departDelay="4.00" arrival="269.00" arrivalLane="4o_0" arrivalPos="492.80" arrivalSpeed="10.45" duration="100.00" routeLength="984.53" waitingTime="2.00" waitingCount="2" stopTime="0.00" timeLoss="26.18" rerouteNo="0" devices="tripinfo_NS_165" vType="truck" speedFactor="0.96" vaporized=""/>
    <tripinfo id="EW_188" depart="188.00" departLane="4i_0" departPos="4.10" departSpeed="0.00" departDelay="0.00" arrival="269.00" arrivalLane="1o_0" arrivalPos="492.80" arrivalSpeed="10.15" duration="81.00" routeLength="990.53" waitingTime="0.00" waitingCount="0" stopTime="0.00" timeLoss="8.84" rerouteNo="0" devices="tripinfo_EW_188" vType="car" speedFactor="0.97" vaporized=""/>
    <tripinfo id="NS_186" depart="186.00" departLane="2i_0" departPos="4.10" departSpeed="0.00" departDelay="0.00" arrival="272.00" arrivalLane="1o_0" arrivalPos="492.80" arrivalSpeed="10.22" duration="86.00" routeLength="995.90" waitingTime="0.00" waitingCount="0" stopTime="0.00" timeLoss="16.55" rerouteNo="0" devices="tripinfo_NS_186" vType="car" speedFactor="1.02" vaporized=""/>
    <tripinfo id="WE_185" depart="186.00" departLane="1i_0" departPos="4.10" departSpeed="0.00" departDelay="1.00" arrival="273.00" arrivalLane="2o_0" arrivalPos="492.80" arrivalSpeed="11.24" duration="87.00" routeLength="995.90" waitingTime="1.00" waitingCount="1" stopTime="0.00" timeLoss="17.05" rerouteNo="0" devices="tripinfo_WE_185" vType="car" speedFactor="1.02" vaporized=""/>
    <tripinfo id="WE_189" depart="191.00" departLane="1i_0" departPos="4.10" departSpeed="0.00" departDelay="2.00" arrival="284.00" arrivalLane="2o_0" arrivalPos="492.80" arrivalSpeed="9.61" duration="93.00" routeLength="995.90" waitingTime="2.00" waitingCount="1" stopTime="0.00" timeLoss="17.52" rerouteNo="0" devices="tripinfo_WE_189" vType="car" speedFactor="0.94" vaporized=""/>
    <tripinfo id="NS_193" depart="196.00" departLane="2i_0" departPos="4.10" departSpeed="0.00" departDelay="3.00" arrival="287.00" arrivalLane="3o_0" arrivalPos="492.80" arrivalSpeed="10.58" duration="91.00" routeLength="995.70" waitingTime="3.00" waitingCount="2" stopTime="0.00" timeLoss="16.39" rerouteNo="0" devices="tripinfo_NS_193" vType="car" speedFactor="0.96" vaporized=""/>
    <tripinfo id="WE_190" depart="194.00" departLane="1i_0" departPos="4.10" departSpeed="0.00" departDelay="4.00" arrival="289.00" arrivalLane="3o_0" arrivalPos="492.80" arrivalSpeed="11.45" duration="95.00" routeLength="990.53" waitingTime="6.00" waitingCount="2" stopTime="0.00" timeLoss="27.62" rerouteNo="0" devices="tripinfo_WE_190" vType="car" speedFactor="1.06" vaporized=""/>
    <tripinfo id="EW_215" depart="215.00" departLane="4i_0" departPos="4.10" departSpeed="0.00" departDelay="0.00" arrival="291.00" arrivalLane="2o_0" arrivalPos="492.80" arrivalSpeed="10.98" duration="76.00" routeLength="995.70" waitingTime="0.00" waitingCount="0" stopTime="0.00" timeLoss="11.01" rerouteNo="0" devices="tripinfo_EW_215" vType="car" speedFactor="1.09" vaporized=""/>