<?xml version="1.0" encoding="UTF-8"?>

<!-- generated on 2024-05-04 17:27:43 by Eclipse SUMO sumo Version 1.19.0
<configuration xmlns:xsi="http://www.w3.org/2001/XMLSchema-instance" xsi:noNamespaceSchemaLocation="http://sumo.dlr.de/xsd/sumoConfiguration.xsd">

    <input>
        <net-file value="test5.net.xml"/>
        <route-files value="route_gen.rou.xml"/>
    </input>

    <output>
        <tripinfo-output value="tripinfo_epi171.xml"/>
    </output>

    <report>
        <no-warnings value="true"/>
    </report>

    <traci_server>
        <remote-port value="33073"/>
    </traci_server>

</configuration>
-->

<tripinfos xmlns:xsi="http://www.w3.org/2001/XMLSchema-instance" xsi:noNamespaceSchemaLocation="http://sumo.dlr.de/xsd/tripinfo_file.xsd">
    <tripinfo id="NS_4" depart="4.00" departLane="2i_0" departPos="4.10" departSpeed="0.00" departDelay="0.00" arrival="85.00" arrivalLane="4o_0" arrivalPos="492.80" arrivalSpeed="11.08" duration="81.00" routeLength="990.53" waitingTime="1.00" waitingCount="1" stopTime="0.00" timeLoss="14.80" rerouteNo="0" devices="tripinfo_NS_4" vType="car" speedFactor="1.06" vaporized=""/>
    <tripinfo id="EW_6" depart="6.00" departLane="4i_0" departPos="4.10" departSpeed="0.00" departDelay="0.00" arrival="91.00" arrivalLane="3o_0" arrivalPos="492.80" arrivalSpeed="9.72" duration="85.00" routeLength="995.90" waitingTime="0.00" waitingCount="0" stopTime="0.00" timeLoss="9.20" rerouteNo="0" devices="tripinfo_EW_6" vType="car" speedFactor="0.94" vaporized=""/>
    <tripinfo id="NS_11" depart="11.00" departLane="2i_0" departPos="4.10" departSpeed="0.00" departDelay="0.00" arrival="94.00" arrivalLane="3o_0" arrivalPos="492.80" arrivalSpeed="10.66" duration="83.00" routeLength="995.70" waitingTime="1.00" waitingCount="1" stopTime="0.00" timeLoss="13.72" rerouteNo="0" devices="tripinfo_NS_11" vType="car" speedFactor="1.03" vaporized=""/>
    <tripinfo id="WE_8" depart="8.00" departLane="1i_0" departPos="4.10" departSpeed="0.00" departDelay="0.00" arrival="96.00" arrivalLane="4o_0" arrivalPos="492.80" arrivalSpeed="11.05" duration="88.00" routeLength="995.70" waitingTime="4.00" waitingCount="1" stopTime="0.00" timeLoss="17.28" rerouteNo="0" devices="tripinfo_WE_8" vType="car" speedFactor="1.01" vaporized=""/>
    <tripinfo id="SN_23" depart="23.00" departLane="3i_0" departPos="4.10" departSpeed="0.00" departDelay="0.00" arrival="98.00" arrivalLane="2o_0" arrivalPos="492.80" arrivalSpeed="10.73" duration="75.00" routeLength="990.53" waitingTime="0.00" waitingCount="0" stopTime="0.00" timeLoss="7.66" rerouteNo="0" devices="tripinfo_SN_23" vType="car" speedFactor="1.05" vaporized=""/>
    <tripinfo id="EW_10" depart="10.00" departLane="4i_0" departPos="10.10" departSpeed="0.00" departDelay="0.00" arrival="99.00" arrivalLane="3o_0" arrivalPos="492.80" arrivalSpeed="11.18" duration="89.00" routeLength="989.90" waitingTime="3.00" waitingCount="1" stopTime="0.00" timeLoss="20.60" rerouteNo="0" devices="tripinfo_EW_10" vType="truck" speedFactor="1.04" vaporized=""/>
    <tripinfo id="WE_34" depart="34.00" departLane="1i_0" departPos="4.10" departSpeed="0.00" departDelay="0.00" arrival="115.00" arrivalLane="4o_0" arrivalPos="492.80" arrivalSpeed="11.40" duration="81.00" routeLength="995.70" waitingTime="2.00" waitingCount="1" stopTime="0.00" timeLoss="16.18" rerouteNo="0" devices="tripinfo_WE_34" vType="car" speedFactor="1.09" vaporized=""/>
    <tripinfo id="SN_44" depart="44.00" departLane="3i_0" departPos="4.10" departSpeed="0.00" departDelay="0.00" arrival="117.00" arrivalLane="4o_0" arrivalPos="492.80" arrivalSpeed="12.18" duration="73.00" routeLength="995.90" waitingTime="0.00" waitingCount="0" stopTime="0.00" timeLoss="9.34" rerouteNo="0" devices="tripinfo_SN_44" vType="car" speedFactor="1.12" vaporized=""/>
    <tripinfo id="WE_20" depart="20.00" departLane="1i_0" departPos="4.10" departSpeed="0.00" departDelay="0.00" arrival="120.00" arrivalLane="3o_0" arrivalPos="492.80" arrivalSpeed="8.23" duration="100.00" routeLength="990.53" waitingTime="1.00" waitingCount="1" stopTime="0.00" timeLoss="15.38" rerouteNo="0" devices="tripinfo_WE_20" vType="car" speedFactor="0.83" vaporized=""/>
    <tripinfo id="NS_27" depart="27.00" departLane="2i_0" departPos="4.10" departSpeed="0.00" departDelay="0.00" arrival="120.00" arrivalLane="1o_0" arrivalPos="492.80" arrivalSpeed="9.38" duration="93.00" routeLength="995.90" waitingTime="1.00" waitingCount="1" stopTime="0.00" timeLoss="12.32" rerouteNo="0" devices="tripinfo_NS_27" vType="car" speedFactor="0.89" vaporized=""/>
    <tripinfo id="EW_29" depart="29.00" departLane="4i_0" departPos="4.10" departSpeed="0.00" departDelay="0.00" arrival="124.00" arrivalLane="3o_0" arrivalPos="492.80" arrivalSpeed="8.89" duration="95.00" routeLength="995.90" waitingTime="0.00" waitingCount="0" stopTime="0.00" timeLoss="11.97" rerouteNo="0" devices="tripinfo_EW_29" vType="car" speedFactor="0.86" vaporized=""/>
    <tripinfo id="NS_28" depart="29.00" departLane="2i_0" departPos="4.10" departSpeed="0.00" departDelay="1.00" arrival="126.00" arrivalLane="3o_0" arrivalPos="492.80" arrivalSpeed="10.13" duration="97.00" routeLength="995.70" waitingTime="2.00" waitingCount="2" stopTime="0.00" timeLoss="21.01" rerouteNo="0" devices="tripinfo_NS_28" vType="car" speedFactor="0.94" vaporized=""/>
    <tripinfo id="NS_45" depart="45.00" departLane="2i_0" departPos="4.10" departSpeed="0.00" departDelay="0.00" arrival="130.00" arrivalLane="3o_0" arrivalPos="492.80" arrivalSpeed="10.00" duration="85.00" routeLength="995.70" waitingTime="1.00" waitingCount="1" stopTime="0.00" timeLoss="13.71" rerouteNo="0" devices="tripinfo_NS_45" vType="car" speedFactor="0.99" vaporized=""/>
    <tripinfo id="SN_45" depart="47.00" departLane="3i_0" departPos="4.10" departSpeed="0.00" departDelay="2.00" arrival="130.00" arrivalLane="2o_0" arrivalPos="492.80" arrivalSpeed="9.11" duration="83.00" routeLength="990.53" waitingTime="0.00" waitingCount="0" stopTime="0.00" timeLoss="7.06" rerouteNo="0" devices="tripinfo_SN_45" vType="car" speedFactor="0.93" vaporized=""/>
    <tripinfo id="WE_37" depart="37.00" departLane="1i_0" departPos="4.10" departSpeed="0.00" departDelay="0.00" arrival="131.00" arrivalLane="4o_0" arrivalPos="492.80" arrivalSpeed="10.74" duration="94.00" routeLength="995.70" waitingTime="6.00" waitingCount="1" stopTime="0.00" timeLoss="25.01" rerouteNo="0" devices="tripinfo_WE_37" vType="car" speedFactor="1.03" vaporized=""/>
    <tripinfo id="EW_48" depart="48.00" departLane="4i_0" departPos="4.10" departSpeed="0.00" departDelay="0.00" arrival="135.00" arrivalLane="1o_0" arrivalPos="492.80" arrivalSpeed="12.04" duration="87.00" routeLength="990.53" waitingTime="13.00" waitingCount="1" stopTime="0.00" timeLoss="25.87" rerouteNo="0" devices="tripinfo_EW_48" vType="car" speedFactor="1.16" vaporized=""/>
    <tripinfo id="EW_38" depart="38.00" departLane="4i_0" departPos="4.10" departSpeed="0.00" departDelay="0.00" arrival="137.00" arrivalLane="2o_0" arrivalPos="492.80" arrivalSpeed="11.14" duration="99.00" routeLength="995.70" waitingTime="18.00" waitingCount="1" stopTime="0.00" timeLoss="31.46" rerouteNo="0" devices="tripinfo_EW_38" vType="car" speedFactor="1.05" vaporized=""/>
    <tripinfo id="SN_46" depart="49.00" departLane="3i_0" departPos="4.10" departSpeed="0.00" departDelay="3.00" arrival="140.00" arrivalLane="4o_0" arrivalPos="492.80" arrivalSpeed="10.08" duration="91.00" routeLength="995.90" waitingTime="1.00" waitingCount="1" stopTime="0.00" timeLoss="15.20" rerouteNo="0" devices="tripinfo_SN_46" vType="car" speedFactor="0.94" vaporized=""/>
    <tripinfo id="SN_48" depart="52.00" departLane="3i_0" departPos="4.10" departSpeed="0.00" departDelay="4.00" arrival="141.00" arrivalLane="2o_0" arrivalPos="492.80" arrivalSpeed="11.17" duration="89.00" routeLength="990.53" waitingTime="0.00" waitingCount="0" stopTime="0.00" timeLoss="19.75" rerouteNo="0" devices="tripinfo_SN_48" vType="car" speedFactor="1.02" vaporized=""/>
    <tripinfo id="NS_50" depart="50.00" departLane="2i_0" departPos="4.10" departSpeed="0.00" departDelay="0.00" arrival="141.00" arrivalLane="4o_0" arrivalPos="492.80" arrivalSpeed="10.06" duration="91.00" routeLength="990.53" waitingTime="4.00" waitingCount="3" stopTime="0.00" timeLoss="21.48" rerouteNo="0" devices="tripinfo_NS_50" vType="car" speedFactor="1.01" vaporized=""/>
    <tripinfo id="NS_53" depart="53.00" departLane="2i_0" departPos="4.10" departSpeed="0.00" departDelay="0.00" arrival="147.00" arrivalLane="1o_0" arrivalPos="492.80" arrivalSpeed="10.14" duration="94.00" routeLength="995.90" waitingTime="3.00" waitingCount="2" stopTime="0.00" timeLoss="21.50" rerouteNo="0" devices="tripinfo_NS_53" vType="car" speedFactor="0.97" vaporized=""/>
    <tripinfo id="EW_63" depart="63.00" departLane="4i_0" departPos="4.10" departSpeed="0.00" departDelay="0.00" arrival="152.00" arrivalLane="1o_0" arrivalPos="492.80" arrivalSpeed="9.68" duration="89.00" routeLength="990.53" waitingTime="0.00" waitingCount="0" stopTime="0.00" timeLoss="12.08" rerouteNo="0" devices="tripinfo_EW_63" vType="car" speedFactor="0.92" vaporized=""/>
    <tripinfo id="WE_46" depart="46.00" departLane="1i_0" departPos="4.10" departSpeed="0.00" departDelay="0.00" arrival="153.00" arrivalLane="2o_0" arrivalPos="492.80" arrivalSpeed="9.68" duration="107.00" routeLength="995.90" waitingTime="8.00" waitingCount="3" stopTime="0.00" timeLoss="26.43" rerouteNo="0" devices="tripinfo_WE_46" vType="car" speedFactor="0.88" vaporized=""/>
    <tripinfo id="SN_58" depart="58.00" departLane="3i_0" departPos="4.10" departSpeed="0.00" departDelay="0.00" arrival="155.00" arrivalLane="2o_0" arrivalPos="492.80" arrivalSpeed="9.33" duration="97.00" routeLength="990.53" waitingTime="1.00" waitingCount="1" stopTime="0.00" timeLoss="17.79" rerouteNo="0" devices="tripinfo_SN_58" vType="car" speedFactor="0.89" vaporized=""/>
    <tripinfo id="SN_65" depart="65.00" departLane="3i_0" departPos="4.10" departSpeed="0.00" departDelay="0.00" arrival="157.00" arrivalLane="2o_0" arrivalPos="492.80" arrivalSpeed="10.31" duration="92.00" routeLength="990.53" waitingTime="0.00" waitingCount="0" stopTime="0.00" timeLoss="17.49" rerouteNo="0" devices="tripinfo_SN_65" vType="car" speedFactor="0.95" vaporized=""/>
    <tripinfo id="WE_48" depart="49.00" departLane="1i_0" departPos="4.10" departSpeed="0.00" departDelay="1.00" arrival="159.00" arrivalLane="4o_0" arrivalPos="492.80" arrivalSpeed="10.14" duration="110.00" routeLength="995.70" waitingTime="11.00" waitingCount="4" stopTime="0.00" timeLoss="34.50" rerouteNo="0" devices="tripinfo_WE_48" vType="car" speedFactor="0.94" vaporized=""/>
    <tripinfo id="NS_59" depart="59.00" departLane="2i_0" departPos="4.10" departSpeed="0.00" departDelay="0.00" arrival="163.00" arrivalLane="1o_0" arrivalPos="492.80" arrivalSpeed="8.52" duration="104.00" routeLength="995.90" waitingTime="1.00" waitingCount="1" stopTime="0.00" timeLoss="18.09" rerouteNo="0" devices="tripinfo_NS_59" vType="car" speedFactor="0.83" vaporized=""/>
    <tripinfo id="NS_67" depart="67.00" departLane="2i_0" departPos="4.10" departSpeed="0.00" departDelay="0.00" arrival="165.00" arrivalLane="1o_0" arrivalPos="492.80" arrivalSpeed="11.87" duration="98.00" routeLength="995.90" waitingTime="1.00" waitingCount="1" stopTime="0.00" timeLoss="34.74" rerouteNo="0" devices="tripinfo_NS_67" vType="car" speedFactor="1.13" vaporized=""/>
    <tripinfo id="WE_61" depart="61.00" departLane="1i_0" departPos="4.10" departSpeed="0.00" departDelay="0.00" arrival="166.00" arrivalLane="3o_0" arrivalPos="492.80" arrivalSpeed="9.00" duration="105.00" routeLength="990.53" waitingTime="2.00" waitingCount="2" stopTime="0.00" timeLoss="24.49" rerouteNo="0" devices="tripinfo_WE_61" vType="car" speedFactor="0.87" vaporized=""/>
    <tripinfo id="EW_92" depart="92.00" departLane="4i_0" departPos="4.10" departSpeed="0.00" departDelay="0.00" arrival="166.00" arrivalLane="1o_0" arrivalPos="492.80" arrivalSpeed="12.65" duration="74.00" routeLength="990.53" waitingTime="0.00" waitingCount="0" stopTime="0.00" timeLoss="12.80" rerouteNo="0" devices="tripinfo_EW_92" vType="car" speedFactor="1.15" vaporized=""/>
    <tripinfo id="NS_81" depart="81.00" departLane="2i_0" departPos="4.10" departSpeed="0.00" departDelay="0.00" arrival="171.00" arrivalLane="3o_0" arrivalPos="492.80" arrivalSpeed="10.13" duration="90.00" routeLength="995.70" waitingTime="1.00" waitingCount="1" stopTime="0.00" timeLoss="13.45" rerouteNo="0" devices="tripinfo_NS_81" vType="car" speedFactor="0.93" vaporized=""/>
    <tripinfo id="NS_86" depart="86.00" departLane="2i_0" departPos="4.10" departSpeed="0.00" departDelay="0.00" arrival="172.00" arrivalLane="3o_0" arrivalPos="492.80" arrivalSpeed="11.72" duration="86.00" routeLength="995.70" waitingTime="1.00" waitingCount="1" stopTime="0.00" timeLoss="26.01" rerouteNo="0" devices="tripinfo_NS_86" vType="car" speedFactor="1.18" vaporized=""/>
    <tripinfo id="EW_93" depart="96.00" departLane="4i_0" departPos="4.10" departSpeed="0.00" departDelay="3.00" arrival="174.00" arrivalLane="1o_0" arrivalPos="492.80" arrivalSpeed="10.13" duration="78.00" routeLength="990.53" waitingTime="0.00" waitingCount="0" stopTime="0.00" timeLoss="8.03" rerouteNo="0" devices="tripinfo_EW_93" vType="car" speedFactor="1.01" vaporized=""/>
    <tripinfo id="EW_99" depart="99.00" departLane="4i_0" departPos="4.10" departSpeed="0.00" departDelay="0.00" arrival="174.00" arrivalLane="3o_0" arrivalPos="492.80" arrivalSpeed="12.20" duration="75.00" routeLength="995.90" waitingTime="0.00" waitingCount="0" stopTime="0.00" timeLoss="14.22" rerouteNo="0" devices="tripinfo_EW_99" vType="car" speedFactor="1.17" vaporized=""/>
    <tripinfo id="SN_108" depart="108.00" departLane="3i_0" departPos="4.10" departSpeed="0.00" departDelay="0.00" arrival="176.00" arrivalLane="4o_0" arrivalPos="492.80" arrivalSpeed="13.02" duration="68.00" routeLength="995.90" waitingTime="0.00" waitingCount="0" stopTime="0.00" timeLoss="7.69" rerouteNo="0" devices="tripinfo_SN_108" vType="car" speedFactor="1.18" vaporized=""/>
    <tripinfo id="EW_103" depart="103.00" departLane="4i_0" departPos="4.10" departSpeed="0.00" departDelay="0.00" arrival="188.00" arrivalLane="2o_0" arrivalPos="492.80" arrivalSpeed="10.76" duration="85.00" routeLength="995.70" waitingTime="0.00" waitingCount="0" stopTime="0.00" timeLoss="13.24" rerouteNo="0" devices="tripinfo_EW_103" vType="car" speedFactor="0.99" vaporized=""/>
    <tripinfo id="EW_109" depart="109.00" departLane="4i_0" departPos="4.10" departSpeed="0.00" departDelay="0.00" arrival="189.00" arrivalLane="2o_0" arrivalPos="492.80" arrivalSpeed="11.77" duration="80.00" routeLength="995.70" waitingTime="0.00" waitingCount="0" stopTime="0.00" timeLoss="15.82" rerouteNo="0" devices="tripinfo_EW_109" vType="car" speedFactor="1.10" vaporized=""/>
    <tripinfo id="SN_112" depart="112.00" departLane="3i_0" departPos="4.10" departSpeed="0.00" departDelay="0.00" arrival="190.00" arrivalLane="1o_0" arrivalPos="492.80" arrivalSpeed="11.43" duration="78.00" routeLength="995.70" waitingTime="0.00" waitingCount="0" stopTime="0.00" timeLoss="9.32" rerouteNo="0" devices="tripinfo_SN_112" vType="car" speedFactor="1.03" vaporized=""/>
    <tripinfo id="NS_106" depart="106.00" departLane="2i_0" departPos="4.10" departSpeed="0.00" departDelay="0.00" arrival="192.00" arrivalLane="3o_0" arrivalPos="492.80" arrivalSpeed="10.41" duration="86.00" routeLength="995.70" waitingTime="0.00" waitingCount="0" stopTime="0.00" timeLoss="12.77" rerouteNo="0" devices="tripinfo_NS_106" vType="car" speedFactor="0.97" vaporized=""/>
    <tripinfo id="WE_106" depart="106.00" departLane="1i_0" departPos="4.10" departSpeed="0.00" departDelay="0.00" arrival="196.00" arrivalLane="2o_0" arrivalPos="492.80" arrivalSpeed="10.89" duration="90.00" routeLength="995.90" waitingTime="7.00" waitingCount="2" stopTime="0.00" timeLoss="19.95" rerouteNo="0" devices="tripinfo_WE_106" vType="car" speedFactor="1.02" vaporized=""/>
    <tripinfo id="SN_122" depart="122.00" departLane="3i_0" departPos="4.10" departSpeed="0.00" departDelay="0.00" arrival="199.00" arrivalLane="2o_0" arrivalPos="492.80" arrivalSpeed="11.28" duration="77.00" routeLength="990.53" waitingTime="0.00" waitingCount="0" stopTime="0.00" timeLoss="8.52" rerouteNo="0" devices="tripinfo_SN_122" vType="car" speedFactor="1.04" vaporized=""/>
    <tripinfo id="NS_109" depart="109.00" departLane="2i_0" departPos="4.10" departSpeed="0.00" departDelay="0.00" arrival="201.00" arrivalLane="4o_0" arrivalPos="492.80" arrivalSpeed="9.47" duration="92.00" routeLength="990.53" waitingTime="1.00" waitingCount="1" stopTime="0.00" timeLoss="13.89" rerouteNo="0" devices="tripinfo_NS_109" vType="car" speedFactor="0.90" vaporized=""/>
    <tripinfo id="SN_126" depart="126.00" departLane="3i_0" departPos="4.10" departSpeed="0.00" departDelay="0.00" arrival="201.00" arrivalLane="1o_0" arrivalPos="492.80" arrivalSpeed="11.59" duration="75.00" routeLength="995.70" waitingTime="0.00" waitingCount="0" stopTime="0.00" timeLoss="9.96" rerouteNo="0" devices="tripinfo_SN_126" vType="car" speedFactor="1.09" vaporized=""/>
    <tripinfo id="WE_117" depart="117.00" departLane="1i_0" departPos="4.10" departSpeed="0.00" departDelay="0.00" arrival="210.00" arrivalLane="3o_0" arrivalPos="492.80" arrivalSpeed="10.30" duration="93.00" routeLength="990.53" waitingTime="6.00" waitingCount="1" stopTime="0.00" timeLoss="19.04" rerouteNo="0" devices="tripinfo_WE_117" vType="car" speedFactor="0.96" vaporized=""/>
    <tripinfo id="NS_123" depart="123.00" departLane="2i_0" departPos="4.10" departSpeed="0.00" departDelay="0.00" arrival="212.00" arrivalLane="3o_0" arrivalPos="492.80" arrivalSpeed="11.16" duration="89.00" routeLength="995.70" waitingTime="1.00" waitingCount="1" stopTime="0.00" timeLoss="20.47" rerouteNo="0" devices="tripinfo_NS_123" vType="car" speedFactor="1.04" vaporized=""/>
    <tripinfo id="WE_122" depart="122.00" departLane="1i_0" departPos="4.10" departSpeed="0.00" departDelay="0.00" arrival="213.00" arrivalLane="3o_0" arrivalPos="492.80" arrivalSpeed="11.12" duration="91.00" routeLength="990.53" waitingTime="7.00" waitingCount="2" stopTime="0.00" timeLoss="26.47" rerouteNo="0" devices="tripinfo_WE_122" vType="car" speedFactor="1.09" vaporized=""/>
    <tripinfo id="NS_127" depart="127.00" departLane="2i_0" departPos="4.10" departSpeed="0.00" departDelay="0.00" arrival="216.00" arrivalLane="1o_0" arrivalPos="492.80" arrivalSpeed="10.87" duration="89.00" routeLength="995.90" waitingTime="1.00" waitingCount="1" stopTime="0.00" timeLoss="17.41" rerouteNo="0" devices="tripinfo_NS_127" vType="car" speedFactor="1.00" vaporized=""/>
    <tripinfo id="SN_127" depart="130.00" departLane="3i_0" departPos="4.10" departSpeed="0.00" departDelay="3.00" arrival="217.00" arrivalLane="2o_0" arrivalPos="492.80" arrivalSpeed="9.26" duration="87.00" routeLength="990.53" waitingTime="0.00" waitingCount="0" stopTime="0.00" timeLoss="8.20" rerouteNo="0" devices="tripinfo_SN_127" vType="car" speedFactor="0.90" vaporized=""/>
    <tripinfo id="EW_129" depart="129.00" departLane="4i_0" departPos="10.10" departSpeed="0.00" departDelay="0.00" arrival="221.00" arrivalLane="1o_0" arrivalPos="492.80" arrivalSpeed="10.07" duration="92.00" routeLength="984.53" waitingTime="0.00" waitingCount="0" stopTime="0.00" timeLoss="15.80" rerouteNo="0" devices="tripinfo_EW_129" vType="truck" speedFactor="0.93" vaporized=""/>
    <tripinfo id="WE_134" depart="135.00" departLane="1i_0" departPos="4.10" departSpeed="0.00" departDelay="1.00" arrival="221.00" arrivalLane="2o_0" arrivalPos="492.80" arrivalSpeed="10.41" duration="86.00" routeLength="995.90" waitingTime="0.00" waitingCount="0" stopTime="0.00" timeLoss="16.21" rerouteNo="0" devices="tripinfo_WE_134" vType="car" speedFactor="1.02" vaporized=""/>
    <tripinfo id="SN_145" depart="145.00" departLane="3i_0" departPos="4.10" departSpeed="0.00" departDelay="0.00" arrival="225.00" arrivalLane="2o_0" arrivalPos="492.80" arrivalSpeed="9.95" duration="80.00" routeLength="990.53" waitingTime="0.00" waitingCount="0" stopTime="0.00" timeLoss="8.81" rerouteNo="0" devices="tripinfo_SN_145" vType="car" speedFactor="1.00" vaporized=""/>
    <tripinfo id="NS_138" depart="138.00" departLane="2i_0" departPos="4.10" departSpeed="0.00" departDelay="0.00" arrival="231.00" arrivalLane="4o_0" arrivalPos="492.80" arrivalSpeed="12.06" duration="93.00" routeLength="990.53" waitingTime="0.00" waitingCount="0" stopTime="0.00" timeLoss="28.15" rerouteNo="0" devices="tripinfo_NS_138" vType="car" speedFactor="1.10" vaporized=""/>
    <tripinfo id="NS_128" depart="130.00" departLane="2i_0" departPos="4.10" departSpeed="0.00" departDelay="2.00" arrival="232.00" arrivalLane="3o_0" arrivalPos="492.80" arrivalSpeed="8.89" duration="102.00" routeLength="995.70" waitingTime="3.00" waitingCount="2" stopTime="0.00" timeLoss="20.80" rerouteNo="0" devices="tripinfo_NS_128" vType="car" speedFactor="0.88" vaporized=""/>
    <tripinfo id="EW_140" depart="141.00" departLane="4i_0" departPos="4.10" departSpeed="0.00" departDelay="1.00" arrival="235.00" arrivalLane="2o_0" arrivalPos="492.80" arrivalSpeed="11.02" duration="94.00" routeLength="995.70" waitingTime="5.00" waitingCount="3" stopTime="0.00" timeLoss="22.92" rerouteNo="0" devices="tripinfo_EW_140" vType="car" speedFactor="1.00" vaporized=""/>
    <tripinfo id="EW_130" depart="133.00" departLane="4i_0" departPos="4.10" departSpeed="0.00" departDelay="3.00" arrival="236.00" arrivalLane="3o_0" arrivalPos="492.80" arrivalSpeed="8.42" duration="103.00" routeLength="995.90" waitingTime="2.00" waitingCount="1" stopTime="0.00" timeLoss="20.08" rerouteNo="0" devices="tripinfo_EW_130" vType="car" speedFactor="0.85" vaporized=""/>
    <tripinfo id="NS_133" depart="133.00" departLane="2i_0" departPos="4.10" departSpeed="0.00" departDelay="0.00" arrival="238.00" arrivalLane="3o_0" arrivalPos="492.80" arrivalSpeed="12.07" duration="105.00" routeLength="995.70" waitingTime="4.00" waitingCount="3" stopTime="0.00" timeLoss="43.94" rerouteNo="0" devices="tripinfo_NS_133" vType="car" speedFactor="1.17" vaporized=""/>
    <tripinfo id="EW_153" depart="153.00" departLane="4i_0" departPos="4.10" departSpeed="0.00" departDelay="0.00" arrival="239.00" arrivalLane="3o_0" arrivalPos="492.80" arrivalSpeed="12.24" duration="86.00" routeLength="995.90" waitingTime="0.00" waitingCount="0" stopTime="0.00" timeLoss="24.20" rerouteNo="0" devices="tripinfo_EW_153" vType="car" speedFactor="1.14" vaporized=""/>
    <tripinfo id="WE_147" depart="147.00" departLane="1i_0" departPos="4.10" departSpeed="0.00" departDelay="0.00" arrival="253.00" arrivalLane="2o_0" arrivalPos="492.80" arrivalSpeed="9.36" duration="106.00" routeLength="995.90" waitingTime="14.00" waitingCount="1" stopTime="0.00" timeLoss="27.20" rerouteNo="0" devices="tripinfo_WE_147" vType="car" speedFactor="0.90" vaporized=""/>
    <tripinfo id="SN_179" depart="179.00" departLane="3i_0" departPos="4.10" departSpeed="0.00" departDelay="0.00" arrival="255.00" arrivalLane="2o_0" arrivalPos="492.80" arrivalSpeed="11.53" duration="76.00" routeLength="990.53" waitingTime="0.00" waitingCount="0" stopTime="0.00" timeLoss="10.28" rerouteNo="0" devices="tripinfo_SN_179" vType="car" speedFactor="1.08" vaporized=""/>
    <tripinfo id="WE_170" depart="170.00" departLane="1i_0" departPos="4.10" departSpeed="0.00" departDelay="0.00" arrival="259.00" arrivalLane="2o_0" arrivalPos="492.80" arrivalSpeed="10.93" duration="89.00" routeLength="995.90" waitingTime="5.00" waitingCount="1" stopTime="0.00" timeLoss="19.58" rerouteNo="0" devices="tripinfo_WE_170" vType="car" speedFactor="1.02" vaporized=""/>
    <tripinfo id="SN_181" depart="182.00" departLane="3i_0" departPos="4.10" departSpeed="0.00" departDelay="1.00" arrival="262.00" arrivalLane="1o_0" arrivalPos="492.80" arrivalSpeed="10.27" duration="80.00" routeLength="995.70" waitingTime="0.00" waitingCount="0" stopTime="0.00" timeLoss="10.38" rerouteNo="0" devices="tripinfo_SN_181" vType="car" speedFactor="1.02" vaporized=""/>
    <tripinfo id="NS_180" depart="180.00" departLane="2i_0" departPos="10.10" departSpeed="0.00" departDelay="0.00" arrival="269.00" arrivalLane="1o_0" arrivalPos="492.80" arrivalSpeed="11.46" duration="89.00" routeLength="989.90" waitingTime="1.00" waitingCount="1" stopTime="0.00" timeLoss="21.98" rerouteNo="0" devices="tripinfo_NS_180" vType="truck" speedFactor="1.06" vaporized=""/>
    <tripinfo id="SN_184" depart="185.00" departLane="3i_0" departPos="4.10" departSpeed="0.00" departDelay="1.00" arrival="269.00" arrivalLane="2o_0" arrivalPos="492.80" arrivalSpeed="10.35" duration="84.00" routeLength="990.53" waitingTime="0.00" waitingCount="0" stopTime="0.00" timeLoss="8.47" rerouteNo="0" devices="tripinfo_SN_184" vType="car" speedFactor="0.94" vaporized=""/>
    <tripinfo id="NS_184" depart="184.00" departLane="2i_0" departPos="4.10" departSpeed="0.00" departDelay="0.00" arrival="280.00" arrivalLane="1o_0" arrivalPos="492.80" arrivalSpeed="9.71" duration="96.00" routeLength="995.90" waitingTime="2.00" waitingCount="1" stopTime="0.00" timeLoss="23.70" rerouteNo="0" devices="tripinfo_NS_184" vType="car" speedFactor="0.99" vaporized=""/>
    <tripinfo id="EW_189" depart="189.00" departLane="4i_0" departPos="4.10" departSpeed="0.00" departDelay="0.00" arrival="281.00" arrivalLane="2o_0" arrivalPos="492.80" arrivalSpeed="9.31" duration="92.00" routeLength="995.70" waitingTime="0.00" waitingCount="0" stopTime="0.00" timeLoss="13.96" rerouteNo="0" devices="tripinfo_EW_189" vType="car" speedFactor="0.91" vaporized=""/>
    <tripinfo id="NS_196" depart="196.00" departLane="2i_0" departPos="4.10" departSpeed="0.00" departDelay="0.00" arrival="284.00" arrivalLane="3o_0" arrivalPos="492.80" arrivalSpeed="10.39" duration="88.00" routeLength="995.70" waitingTime="0.00" waitingCount="0" stopTime="0.00" timeLoss="12.57" rerouteNo="0" devices="tripinfo_NS_196" vType="car" speedFactor="0.94" vaporized=""/>
    <tripinfo id="WE_175" depart="175.00" departLane="1i_0" departPos="4.10" departSpeed="0.00" departDelay="0.00" arrival="286.00" arrivalLane="4o_0" arrivalPos="492.80" arrivalSpeed="10.53" duration="111.00" routeLength="995.70" waitingTime="19.00" waitingCount="3" stopTime="0.00" timeLoss="37.58" rerouteNo="0" devices="tripinfo_WE_175" vType="car" speedFactor="0.97" vaporized=""/>
    <tripinfo id="EW_192" depart="192.00" departLane="4i_0" departPos="4.10" departSpeed="0.00" departDelay="0.00" arrival="286.00" arrivalLane="2o_0" arrivalPos="492.80" arrivalSpeed="9.38" duration="94.00" routeLength="995.70" waitingTime="0.00" waitingCount="0" stopTime="0.00" timeLoss="16.81" rerouteNo="0" devices="tripinfo_EW_192" vType="car" speedFactor="0.91" vaporized=""/>
    <tripinfo id="WE_193" depart="193.00" departLane="1i_0" departPos="4.10" departSpeed="0.00" departDelay="0.00" arrival="287.00" arrivalLane="3o_0" arrivalPos="492.80" arrivalSpeed="11.20" duration="94.00" routeLength="990.53" waitingTime="9.00" waitingCount="1" stopTime="0.00" timeLoss="25.17" rerouteNo="0" devices="tripinfo_WE_193" vType="car" speedFactor="1.02" vaporized=""/>
    <tripinfo id="EW_195" depart="195.00" departLane="4i_0" departPos="4.10" departSpeed="0.00" departDelay="0.00" arrival="288.00" arrivalLane="2o_0" arrivalPos="492.80" arrivalSpeed="10.11" duration="93.00" routeLength="995.70" waitingTime="0.00" waitingCount="0" stopTime="0.00" timeLoss="23.82" rerouteNo="0" devices="tripinfo_EW_195" vType="car" speedFactor="1.02" vaporized=""/>
    <tripinfo id="EW_199" depart="199.00" departLane="4i_0" departPos="4.10" departSpeed="0.00" departDelay="0.00" arrival="290.00" arrivalLane="2o_0" arrivalPos="492.80" arrivalSpeed="11.45" duration="91.00" routeLength="995.70" waitingTime="1.00" waitingCount="1" stopTime="0.00" timeLoss="23.59" rerouteNo="0" devices="tripinfo_EW_199" vType="car" speedFactor="1.06" vaporized=""/>
    <tripinfo id="EW_205" depart="205.00" departLane="4i_0" departPos="4.10" departSpeed="0.00" departDelay="0.00" arrival="291.00" arrivalLane="3o_0" arrivalPos="492.80" arrivalSpeed="10.34" duration="86.00" routeLength="995.90" waitingTime="0.00" waitingCount="0" stopTime="0.00" timeLoss="16.99" rerouteNo="0" devices="tripinfo_EW_205" vType="car" speedFactor="1.03" vaporized=""/>
    <tripinfo id="SN_192" depart="192.00" departLane="3i_0" departPos="4.10" departSpeed="0.00" departDelay="0.00" arrival="294.00" arrivalLane="1o_0" arrivalPos="492.80" arrivalSpeed="10.59" duration="102.00" routeLength="995.70" waitingTime="12.00" waitingCount="2" stopTime="0.00" timeLoss="33.52" rerouteNo="0" devices="tripinfo_SN_192" vType="car" speedFactor="1.04" vaporized=""/>
    <tripinfo id="SN_187" depart="188.00" departLane="3i_0" departPos="4.10" departSpeed="0.00" departDelay="1.00" arrival="295.00" arrivalLane="4o_0" arrivalPos="492.80" arrivalSpeed="9.57" duration="107.00" routeLength="995.90" waitingTime="12.00" waitingCount="1" stopTime="0.00" timeLoss="26.10" rerouteNo="0" devices="tripinfo_SN_187" vType="car" speedFactor="0.88" vaporized=""/>
    <tripinfo id="WE_196" depart="196.00" departLane="1i_0" departPos="4.10" departSpeed="0.00" departDelay="0.00" arrival="297.00" arrivalLane="3o_0" arrivalPos="492.80" arrivalSpeed="10.18" duration="101.00" routeLength="990.53" waitingTime="9.00" waitingCount="3" stopTime="0.00" timeLoss="28.66" rerouteNo="0" devices="tripinfo_WE_196" vType="car" speedFactor="0.97" vaporized=""/>
    <tripinfo id="NS_209" depart="209.00" departLane="2i_0" departPos="4.10" departSpeed="0.00" departDelay="0.00" arrival="299.00" arrivalLane="1o_0" arrivalPos="492.80" arrivalSpeed="10.48" duration="90.00" routeLength="995.90" waitingTime="3.00" waitingCount="3" stopTime="0.00" timeLoss="17.44" rerouteNo="0" devices="tripinfo_NS_209" vType="car" speedFactor="0.98" vaporized=""/>