<?xml version="1.0" encoding="UTF-8"?>

<!-- generated on 2024-05-04 21:17:23 by Eclipse SUMO sumo Version 1.19.0
<configuration xmlns:xsi="http://www.w3.org/2001/XMLSchema-instance" xsi:noNamespaceSchemaLocation="http://sumo.dlr.de/xsd/sumoConfiguration.xsd">

    <input>
        <net-file value="test5.net.xml"/>
        <route-files value="route_gen.rou.xml"/>
    </input>

    <output>
        <tripinfo-output value="tripinfo_epi989.xml"/>
    </output>

    <report>
        <no-warnings value="true"/>
    </report>

    <traci_server>
        <remote-port value="38489"/>
    </traci_server>

</configuration>
-->

<tripinfos xmlns:xsi="http://www.w3.org/2001/XMLSchema-instance" xsi:noNamespaceSchemaLocation="http://sumo.dlr.de/xsd/tripinfo_file.xsd">
    <tripinfo id="NS_1" depart="1.00" departLane="2i_0" departPos="4.10" departSpeed="0.00" departDelay="0.00" arrival="79.00" arrivalLane="4o_0" arrivalPos="492.80" arrivalSpeed="10.62" duration="78.00" routeLength="990.53" waitingTime="1.00" waitingCount="1" stopTime="0.00" timeLoss="11.14" rerouteNo="0" devices="tripinfo_NS_1" vType="car" speedFactor="1.06" vaporized=""/>
    <tripinfo id="SN_13" depart="13.00" departLane="3i_0" departPos="4.10" departSpeed="0.00" departDelay="0.00" arrival="94.00" arrivalLane="4o_0" arrivalPos="492.80" arrivalSpeed="10.27" duration="81.00" routeLength="995.90" waitingTime="0.00" waitingCount="0" stopTime="0.00" timeLoss="10.99" rerouteNo="0" devices="tripinfo_SN_13" vType="car" speedFactor="1.01" vaporized=""/>
    <tripinfo id="NS_15" depart="15.00" departLane="2i_0" departPos="4.10" departSpeed="0.00" departDelay="0.00" arrival="94.00" arrivalLane="3o_0" arrivalPos="492.80" arrivalSpeed="10.79" duration="79.00" routeLength="995.70" waitingTime="1.00" waitingCount="1" stopTime="0.00" timeLoss="13.52" rerouteNo="0" devices="tripinfo_NS_15" vType="car" speedFactor="1.08" vaporized=""/>
    <tripinfo id="SN_11" depart="11.00" departLane="3i_0" departPos="4.10" departSpeed="0.00" departDelay="0.00" arrival="96.00" arrivalLane="1o_0" arrivalPos="492.80" arrivalSpeed="10.29" duration="85.00" routeLength="995.70" waitingTime="0.00" waitingCount="0" stopTime="0.00" timeLoss="9.08" rerouteNo="0" devices="tripinfo_SN_11" vType="car" speedFactor="0.94" vaporized=""/>
    <tripinfo id="EW_20" depart="20.00" departLane="4i_0" departPos="4.10" departSpeed="0.00" departDelay="0.00" arrival="97.00" arrivalLane="1o_0" arrivalPos="492.80" arrivalSpeed="10.39" duration="77.00" routeLength="990.53" waitingTime="0.00" waitingCount="0" stopTime="0.00" timeLoss="8.74" rerouteNo="0" devices="tripinfo_EW_20" vType="car" speedFactor="1.03" vaporized=""/>
    <tripinfo id="EW_38" depart="38.00" departLane="4i_0" departPos="4.10" departSpeed="0.00" departDelay="0.00" arrival="115.00" arrivalLane="2o_0" arrivalPos="492.80" arrivalSpeed="10.91" duration="77.00" routeLength="995.70" waitingTime="0.00" waitingCount="0" stopTime="0.00" timeLoss="12.06" rerouteNo="0" devices="tripinfo_EW_38" vType="car" speedFactor="1.09" vaporized=""/>
    <tripinfo id="WE_31" depart="31.00" departLane="1i_0" departPos="4.10" departSpeed="0.00" departDelay="0.00" arrival="116.00" arrivalLane="4o_0" arrivalPos="492.80" arrivalSpeed="10.86" duration="85.00" routeLength="995.70" waitingTime="2.00" waitingCount="1" stopTime="0.00" timeLoss="16.75" rerouteNo="0" devices="tripinfo_WE_31" vType="car" speedFactor="1.05" vaporized=""/>
    <tripinfo id="EW_35" depart="35.00" departLane="4i_0" departPos="4.10" departSpeed="0.00" departDelay="0.00" arrival="119.00" arrivalLane="1o_0" arrivalPos="492.80" arrivalSpeed="10.34" duration="84.00" routeLength="990.53" waitingTime="0.00" waitingCount="0" stopTime="0.00" timeLoss="8.52" rerouteNo="0" devices="tripinfo_EW_35" vType="car" speedFactor="0.94" vaporized=""/>
    <tripinfo id="NS_25" depart="25.00" departLane="2i_0" departPos="4.10" departSpeed="0.00" departDelay="0.00" arrival="126.00" arrivalLane="3o_0" arrivalPos="492.80" arrivalSpeed="8.14" duration="101.00" routeLength="995.70" waitingTime="2.00" waitingCount="1" stopTime="0.00" timeLoss="15.49" rerouteNo="0" devices="tripinfo_NS_25" vType="car" speedFactor="0.83" vaporized=""/>
    <tripinfo id="WE_35" depart="35.00" departLane="1i_0" departPos="4.10" departSpeed="0.00" departDelay="0.00" arrival="128.00" arrivalLane="3o_0" arrivalPos="492.80" arrivalSpeed="8.93" duration="93.00" routeLength="990.53" waitingTime="0.00" waitingCount="0" stopTime="0.00" timeLoss="13.06" rerouteNo="0" devices="tripinfo_WE_35" vType="car" speedFactor="0.89" vaporized=""/>
    <tripinfo id="EW_40" depart="41.00" departLane="4i_0" departPos="4.10" departSpeed="0.00" departDelay="1.00" arrival="129.00" arrivalLane="3o_0" arrivalPos="492.80" arrivalSpeed="11.11" duration="88.00" routeLength="995.90" waitingTime="0.00" waitingCount="0" stopTime="0.00" timeLoss="19.11" rerouteNo="0" devices="tripinfo_EW_40" vType="car" speedFactor="1.03" vaporized=""/>
    <tripinfo id="WE_56" depart="56.00" departLane="1i_0" departPos="4.10" departSpeed="0.00" departDelay="0.00" arrival="136.00" arrivalLane="2o_0" arrivalPos="492.80" arrivalSpeed="9.83" duration="80.00" routeLength="995.90" waitingTime="0.00" waitingCount="0" stopTime="0.00" timeLoss="8.16" rerouteNo="0" devices="tripinfo_WE_56" vType="car" speedFactor="0.99" vaporized=""/>
    <tripinfo id="WE_38" depart="38.00" departLane="1i_0" departPos="4.10" departSpeed="0.00" departDelay="0.00" arrival="137.00" arrivalLane="3o_0" arrivalPos="492.80" arrivalSpeed="8.52" duration="99.00" routeLength="990.53" waitingTime="2.00" waitingCount="1" stopTime="0.00" timeLoss="16.28" rerouteNo="0" devices="tripinfo_WE_38" vType="car" speedFactor="0.86" vaporized=""/>
    <tripinfo id="EW_53" depart="53.00" departLane="4i_0" departPos="10.10" departSpeed="0.00" departDelay="0.00" arrival="145.00" arrivalLane="2o_0" arrivalPos="492.80" arrivalSpeed="11.02" duration="92.00" routeLength="989.70" waitingTime="1.00" waitingCount="1" stopTime="0.00" timeLoss="22.94" rerouteNo="0" devices="tripinfo_EW_53" vType="truck" speedFactor="1.02" vaporized=""/>
    <tripinfo id="EW_55" depart="57.00" departLane="4i_0" departPos="4.10" departSpeed="0.00" departDelay="2.00" arrival="146.00" arrivalLane="3o_0" arrivalPos="492.80" arrivalSpeed="11.70" duration="89.00" routeLength="995.90" waitingTime="0.00" waitingCount="0" stopTime="0.00" timeLoss="25.98" rerouteNo="0" devices="tripinfo_EW_55" vType="car" speedFactor="1.12" vaporized=""/>
    <tripinfo id="NS_77" depart="77.00" departLane="2i_0" departPos="4.10" departSpeed="0.00" departDelay="0.00" arrival="146.00" arrivalLane="1o_0" arrivalPos="492.80" arrivalSpeed="12.30" duration="69.00" routeLength="995.90" waitingTime="0.00" waitingCount="0" stopTime="0.00" timeLoss="7.74" rerouteNo="0" devices="tripinfo_NS_77" vType="car" speedFactor="1.16" vaporized=""/>
    <tripinfo id="NS_61" depart="61.00" departLane="2i_0" departPos="4.10" departSpeed="0.00" departDelay="0.00" arrival="149.00" arrivalLane="4o_0" arrivalPos="492.80" arrivalSpeed="10.29" duration="88.00" routeLength="990.53" waitingTime="2.00" waitingCount="1" stopTime="0.00" timeLoss="12.02" rerouteNo="0" devices="tripinfo_NS_61" vType="car" speedFactor="0.93" vaporized=""/>
    <tripinfo id="SN_63" depart="63.00" departLane="3i_0" departPos="4.10" departSpeed="0.00" departDelay="0.00" arrival="157.00" arrivalLane="2o_0" arrivalPos="492.80" arrivalSpeed="8.69" duration="94.00" routeLength="990.53" waitingTime="0.00" waitingCount="0" stopTime="0.00" timeLoss="13.42" rerouteNo="0" devices="tripinfo_SN_63" vType="car" speedFactor="0.88" vaporized=""/>
    <tripinfo id="WE_72" depart="72.00" departLane="1i_0" departPos="4.10" departSpeed="0.00" departDelay="0.00" arrival="158.00" arrivalLane="2o_0" arrivalPos="492.80" arrivalSpeed="10.41" duration="86.00" routeLength="995.90" waitingTime="0.00" waitingCount="0" stopTime="0.00" timeLoss="10.84" rerouteNo="0" devices="tripinfo_WE_72" vType="car" speedFactor="0.94" vaporized=""/>
    <tripinfo id="EW_78" depart="79.00" departLane="4i_0" departPos="4.10" departSpeed="0.00" departDelay="1.00" arrival="162.00" arrivalLane="3o_0" arrivalPos="492.80" arrivalSpeed="11.01" duration="83.00" routeLength="995.90" waitingTime="0.00" waitingCount="0" stopTime="0.00" timeLoss="12.92" rerouteNo="0" devices="tripinfo_EW_78" vType="car" speedFactor="1.02" vaporized=""/>
    <tripinfo id="EW_75" depart="75.00" departLane="4i_0" departPos="4.10" departSpeed="0.00" departDelay="0.00" arrival="164.00" arrivalLane="2o_0" arrivalPos="492.80" arrivalSpeed="10.01" duration="89.00" routeLength="995.70" waitingTime="0.00" waitingCount="0" stopTime="0.00" timeLoss="13.14" rerouteNo="0" devices="tripinfo_EW_75" vType="car" speedFactor="0.94" vaporized=""/>
    <tripinfo id="SN_80" depart="80.00" departLane="3i_0" departPos="4.10" departSpeed="0.00" departDelay="0.00" arrival="166.00" arrivalLane="2o_0" arrivalPos="492.80" arrivalSpeed="9.64" duration="86.00" routeLength="990.53" waitingTime="0.00" waitingCount="0" stopTime="0.00" timeLoss="13.34" rerouteNo="0" devices="tripinfo_SN_80" vType="car" speedFactor="0.97" vaporized=""/>
    <tripinfo id="WE_79" depart="79.00" departLane="1i_0" departPos="4.10" departSpeed="0.00" departDelay="0.00" arrival="168.00" arrivalLane="2o_0" arrivalPos="492.80" arrivalSpeed="9.99" duration="89.00" routeLength="995.90" waitingTime="7.00" waitingCount="1" stopTime="0.00" timeLoss="17.96" rerouteNo="0" devices="tripinfo_WE_79" vType="car" speedFactor="1.01" vaporized=""/>
    <tripinfo id="SN_101" depart="101.00" departLane="3i_0" departPos="4.10" departSpeed="0.00" departDelay="0.00" arrival="170.00" arrivalLane="2o_0" arrivalPos="492.80" arrivalSpeed="12.81" duration="69.00" routeLength="990.53" waitingTime="0.00" waitingCount="0" stopTime="0.00" timeLoss="9.04" rerouteNo="0" devices="tripinfo_SN_101" vType="car" speedFactor="1.18" vaporized=""/>
    <tripinfo id="NS_83" depart="85.00" departLane="2i_0" departPos="4.10" departSpeed="0.00" departDelay="2.00" arrival="178.00" arrivalLane="4o_0" arrivalPos="492.80" arrivalSpeed="9.56" duration="93.00" routeLength="990.53" waitingTime="0.00" waitingCount="0" stopTime="0.00" timeLoss="15.82" rerouteNo="0" devices="tripinfo_NS_83" vType="car" speedFactor="0.92" vaporized=""/>
    <tripinfo id="EW_83" depart="83.00" departLane="4i_0" departPos="4.10" departSpeed="0.00" departDelay="0.00" arrival="179.00" arrivalLane="1o_0" arrivalPos="492.80" arrivalSpeed="9.27" duration="96.00" routeLength="990.53" waitingTime="6.00" waitingCount="1" stopTime="0.00" timeLoss="15.48" rerouteNo="0" devices="tripinfo_EW_83" vType="car" speedFactor="0.87" vaporized=""/>
    <tripinfo id="WE_83" depart="83.00" departLane="1i_0" departPos="4.10" departSpeed="0.00" departDelay="0.00" arrival="180.00" arrivalLane="3o_0" arrivalPos="492.80" arrivalSpeed="8.26" duration="97.00" routeLength="990.53" waitingTime="0.00" waitingCount="0" stopTime="0.00" timeLoss="11.64" rerouteNo="0" devices="tripinfo_WE_83" vType="car" speedFactor="0.83" vaporized=""/>
    <tripinfo id="SN_94" depart="94.00" departLane="3i_0" departPos="4.10" departSpeed="0.00" departDelay="0.00" arrival="181.00" arrivalLane="1o_0" arrivalPos="492.80" arrivalSpeed="12.01" duration="87.00" routeLength="995.70" waitingTime="1.00" waitingCount="1" stopTime="0.00" timeLoss="24.15" rerouteNo="0" devices="tripinfo_SN_94" vType="car" speedFactor="1.13" vaporized=""/>
    <tripinfo id="NS_82" depart="82.00" departLane="2i_0" departPos="4.10" departSpeed="0.00" departDelay="0.00" arrival="182.00" arrivalLane="3o_0" arrivalPos="492.80" arrivalSpeed="9.61" duration="100.00" routeLength="995.70" waitingTime="3.00" waitingCount="1" stopTime="0.00" timeLoss="20.08" rerouteNo="0" devices="tripinfo_NS_82" vType="car" speedFactor="0.89" vaporized=""/>
    <tripinfo id="WE_106" depart="106.00" departLane="1i_0" departPos="4.10" departSpeed="0.00" departDelay="0.00" arrival="182.00" arrivalLane="2o_0" arrivalPos="492.80" arrivalSpeed="11.69" duration="76.00" routeLength="995.90" waitingTime="3.00" waitingCount="1" stopTime="0.00" timeLoss="14.33" rerouteNo="0" devices="tripinfo_WE_106" vType="car" speedFactor="1.15" vaporized=""/>
    <tripinfo id="EW_101" depart="101.00" departLane="4i_0" departPos="4.10" departSpeed="0.00" departDelay="0.00" arrival="185.00" arrivalLane="1o_0" arrivalPos="492.80" arrivalSpeed="9.24" duration="84.00" routeLength="990.53" waitingTime="0.00" waitingCount="0" stopTime="0.00" timeLoss="7.66" rerouteNo="0" devices="tripinfo_EW_101" vType="car" speedFactor="0.93" vaporized=""/>
    <tripinfo id="NS_86" depart="88.00" departLane="2i_0" departPos="4.10" departSpeed="0.00" departDelay="2.00" arrival="187.00" arrivalLane="1o_0" arrivalPos="492.80" arrivalSpeed="9.44" duration="99.00" routeLength="995.90" waitingTime="6.00" waitingCount="1" stopTime="0.00" timeLoss="23.88" rerouteNo="0" devices="tripinfo_NS_86" vType="car" speedFactor="0.95" vaporized=""/>
    <tripinfo id="NS_107" depart="107.00" departLane="2i_0" departPos="4.10" departSpeed="0.00" departDelay="0.00" arrival="188.00" arrivalLane="1o_0" arrivalPos="492.80" arrivalSpeed="10.62" duration="81.00" routeLength="995.90" waitingTime="0.00" waitingCount="0" stopTime="0.00" timeLoss="20.70" rerouteNo="0" devices="tripinfo_NS_107" vType="car" speedFactor="1.17" vaporized=""/>
    <tripinfo id="EW_107" depart="107.00" departLane="4i_0" departPos="4.10" departSpeed="0.00" departDelay="0.00" arrival="190.00" arrivalLane="1o_0" arrivalPos="492.80" arrivalSpeed="10.11" duration="83.00" routeLength="990.53" waitingTime="1.00" waitingCount="1" stopTime="0.00" timeLoss="13.03" rerouteNo="0" devices="tripinfo_EW_107" vType="car" speedFactor="1.01" vaporized=""/>
    <tripinfo id="EW_109" depart="110.00" departLane="4i_0" departPos="4.10" departSpeed="0.00" departDelay="1.00" arrival="193.00" arrivalLane="1o_0" arrivalPos="492.80" arrivalSpeed="10.03" duration="83.00" routeLength="990.53" waitingTime="0.00" waitingCount="0" stopTime="0.00" timeLoss="11.82" rerouteNo="0" devices="tripinfo_EW_109" vType="car" speedFactor="0.99" vaporized=""/>
    <tripinfo id="WE_113" depart="113.00" departLane="1i_0" departPos="4.10" departSpeed="0.00" departDelay="0.00" arrival="194.00" arrivalLane="2o_0" arrivalPos="492.80" arrivalSpeed="10.83" duration="81.00" routeLength="995.90" waitingTime="1.00" waitingCount="1" stopTime="0.00" timeLoss="11.64" rerouteNo="0" devices="tripinfo_WE_113" vType="car" speedFactor="1.02" vaporized=""/>
    <tripinfo id="SN_119" depart="119.00" departLane="3i_0" departPos="4.10" departSpeed="0.00" departDelay="0.00" arrival="196.00" arrivalLane="2o_0" arrivalPos="492.80" arrivalSpeed="12.21" duration="77.00" routeLength="990.53" waitingTime="0.00" waitingCount="0" stopTime="0.00" timeLoss="16.99" rerouteNo="0" devices="tripinfo_SN_119" vType="car" speedFactor="1.18" vaporized=""/>
    <tripinfo id="EW_116" depart="116.00" departLane="4i_0" departPos="4.10" departSpeed="0.00" departDelay="0.00" arrival="199.00" arrivalLane="3o_0" arrivalPos="492.80" arrivalSpeed="10.40" duration="83.00" routeLength="995.90" waitingTime="0.00" waitingCount="0" stopTime="0.00" timeLoss="9.87" rerouteNo="0" devices="tripinfo_EW_116" vType="car" speedFactor="0.97" vaporized=""/>
    <tripinfo id="EW_126" depart="126.00" departLane="4i_0" departPos="4.10" departSpeed="0.00" departDelay="0.00" arrival="202.00" arrivalLane="2o_0" arrivalPos="492.80" arrivalSpeed="12.02" duration="76.00" routeLength="995.70" waitingTime="0.00" waitingCount="0" stopTime="0.00" timeLoss="11.34" rerouteNo="0" devices="tripinfo_EW_126" vType="car" speedFactor="1.10" vaporized=""/>
    <tripinfo id="EW_127" depart="129.00" departLane="4i_0" departPos="4.10" departSpeed="0.00" departDelay="2.00" arrival="208.00" arrivalLane="3o_0" arrivalPos="492.80" arrivalSpeed="10.63" duration="79.00" routeLength="995.90" waitingTime="0.00" waitingCount="0" stopTime="0.00" timeLoss="10.42" rerouteNo="0" devices="tripinfo_EW_127" vType="car" speedFactor="1.03" vaporized=""/>
    <tripinfo id="WE_127" depart="127.00" departLane="1i_0" departPos="4.10" departSpeed="0.00" departDelay="0.00" arrival="219.00" arrivalLane="2o_0" arrivalPos="492.80" arrivalSpeed="9.82" duration="92.00" routeLength="995.90" waitingTime="1.00" waitingCount="1" stopTime="0.00" timeLoss="12.84" rerouteNo="0" devices="tripinfo_WE_127" vType="car" speedFactor="0.90" vaporized=""/>
    <tripinfo id="WE_133" depart="133.00" departLane="1i_0" departPos="4.10" departSpeed="0.00" departDelay="0.00" arrival="220.00" arrivalLane="2o_0" arrivalPos="492.80" arrivalSpeed="11.11" duration="87.00" routeLength="995.90" waitingTime="0.00" waitingCount="0" stopTime="0.00" timeLoss="22.30" rerouteNo="0" devices="tripinfo_WE_133" vType="car" speedFactor="1.09" vaporized=""/>
    <tripinfo id="SN_130" depart="130.00" departLane="3i_0" departPos="4.10" departSpeed="0.00" departDelay="0.00" arrival="221.00" arrivalLane="4o_0" arrivalPos="492.80" arrivalSpeed="9.96" duration="91.00" routeLength="995.90" waitingTime="2.00" waitingCount="1" stopTime="0.00" timeLoss="16.63" rerouteNo="0" devices="tripinfo_SN_130" vType="car" speedFactor="0.96" vaporized=""/>
    <tripinfo id="SN_140" depart="140.00" departLane="3i_0" departPos="4.10" departSpeed="0.00" departDelay="0.00" arrival="222.00" arrivalLane="4o_0" arrivalPos="492.80" arrivalSpeed="11.77" duration="82.00" routeLength="995.90" waitingTime="0.00" waitingCount="0" stopTime="0.00" timeLoss="17.02" rerouteNo="0" devices="tripinfo_SN_140" vType="car" speedFactor="1.09" vaporized=""/>
    <tripinfo id="EW_136" depart="136.00" departLane="4i_0" departPos="4.10" departSpeed="0.00" departDelay="0.00" arrival="225.00" arrivalLane="2o_0" arrivalPos="492.80" arrivalSpeed="11.37" duration="89.00" routeLength="995.70" waitingTime="5.00" waitingCount="1" stopTime="0.00" timeLoss="20.60" rerouteNo="0" devices="tripinfo_EW_136" vType="car" speedFactor="1.04" vaporized=""/>
    <tripinfo id="NS_147" depart="147.00" departLane="2i_0" departPos="4.10" departSpeed="0.00" departDelay="0.00" arrival="226.00" arrivalLane="4o_0" arrivalPos="492.80" arrivalSpeed="10.20" duration="79.00" routeLength="990.53" waitingTime="0.00" waitingCount="0" stopTime="0.00" timeLoss="8.22" rerouteNo="0" devices="tripinfo_NS_147" vType="car" speedFactor="1.00" vaporized=""/>
    <tripinfo id="WE_134" depart="135.00" departLane="1i_0" departPos="4.10" departSpeed="0.00" departDelay="1.00" arrival="227.00" arrivalLane="2o_0" arrivalPos="492.80" arrivalSpeed="11.24" duration="92.00" routeLength="995.90" waitingTime="6.00" waitingCount="2" stopTime="0.00" timeLoss="23.18" rerouteNo="0" devices="tripinfo_WE_134" vType="car" speedFactor="1.04" vaporized=""/>
    <tripinfo id="SN_157" depart="157.00" departLane="3i_0" departPos="4.10" departSpeed="0.00" departDelay="0.00" arrival="236.00" arrivalLane="2o_0" arrivalPos="492.80" arrivalSpeed="11.23" duration="79.00" routeLength="990.53" waitingTime="0.00" waitingCount="0" stopTime="0.00" timeLoss="9.37" rerouteNo="0" devices="tripinfo_SN_157" vType="car" speedFactor="1.02" vaporized=""/>
    <tripinfo id="NS_148" depart="151.00" departLane="2i_0" departPos="10.10" departSpeed="0.00" departDelay="3.00" arrival="237.00" arrivalLane="4o_0" arrivalPos="492.80" arrivalSpeed="10.30" duration="86.00" routeLength="984.53" waitingTime="0.00" waitingCount="0" stopTime="0.00" timeLoss="11.75" rerouteNo="0" devices="tripinfo_NS_148" vType="truck" speedFactor="0.95" vaporized=""/>
    <tripinfo id="WE_159" depart="159.00" departLane="1i_0" departPos="4.10" departSpeed="0.00" departDelay="0.00" arrival="238.00" arrivalLane="2o_0" arrivalPos="492.80" arrivalSpeed="12.08" duration="79.00" routeLength="995.90" waitingTime="0.00" waitingCount="0" stopTime="0.00" timeLoss="13.73" rerouteNo="0" devices="tripinfo_WE_159" vType="car" speedFactor="1.10" vaporized=""/>
    <tripinfo id="EW_150" depart="150.00" departLane="4i_0" departPos="4.10" departSpeed="0.00" departDelay="0.00" arrival="240.00" arrivalLane="3o_0" arrivalPos="492.80" arrivalSpeed="8.72" duration="90.00" routeLength="995.90" waitingTime="0.00" waitingCount="0" stopTime="0.00" timeLoss="9.47" rerouteNo="0" devices="tripinfo_EW_150" vType="car" speedFactor="0.88" vaporized=""/>
    <tripinfo id="SN_159" depart="162.00" departLane="3i_0" departPos="4.10" departSpeed="0.00" departDelay="3.00" arrival="242.00" arrivalLane="2o_0" arrivalPos="492.80" arrivalSpeed="10.96" duration="80.00" routeLength="990.53" waitingTime="0.00" waitingCount="0" stopTime="0.00" timeLoss="9.53" rerouteNo="0" devices="tripinfo_SN_159" vType="car" speedFactor="1.00" vaporized=""/>
    <tripinfo id="EW_160" depart="160.00" departLane="4i_0" departPos="4.10" departSpeed="0.00" departDelay="0.00" arrival="242.00" arrivalLane="1o_0" arrivalPos="492.80" arrivalSpeed="10.33" duration="82.00" routeLength="990.53" waitingTime="1.00" waitingCount="1" stopTime="0.00" timeLoss="11.07" rerouteNo="0" devices="tripinfo_EW_160" vType="car" speedFactor="1.00" vaporized=""/>
    <tripinfo id="WE_152" depart="152.00" departLane="1i_0" departPos="4.10" departSpeed="0.00" departDelay="0.00" arrival="244.00" arrivalLane="3o_0" arrivalPos="492.80" arrivalSpeed="9.01" duration="92.00" routeLength="990.53" waitingTime="0.00" waitingCount="0" stopTime="0.00" timeLoss="8.89" rerouteNo="0" devices="tripinfo_WE_152" vType="car" speedFactor="0.85" vaporized=""/>
    <tripinfo id="SN_169" depart="169.00" departLane="3i_0" departPos="4.10" departSpeed="0.00" departDelay="0.00" arrival="249.00" arrivalLane="1o_0" arrivalPos="492.80" arrivalSpeed="11.05" duration="80.00" routeLength="995.70" waitingTime="0.00" waitingCount="0" stopTime="0.00" timeLoss="10.74" rerouteNo="0" devices="tripinfo_SN_169" vType="car" speedFactor="1.02" vaporized=""/>
    <tripinfo id="NS_177" depart="177.00" departLane="2i_0" departPos="4.10" departSpeed="0.00" departDelay="0.00" arrival="253.00" arrivalLane="4o_0" arrivalPos="492.80" arrivalSpeed="11.32" duration="76.00" routeLength="990.53" waitingTime="2.00" waitingCount="1" stopTime="0.00" timeLoss="12.58" rerouteNo="0" devices="tripinfo_NS_177" vType="car" speedFactor="1.12" vaporized=""/>
    <tripinfo id="NS_154" depart="158.00" departLane="2i_0" departPos="4.10" departSpeed="0.00" departDelay="4.00" arrival="256.00" arrivalLane="3o_0" arrivalPos="492.80" arrivalSpeed="9.24" duration="98.00" routeLength="995.70" waitingTime="0.00" waitingCount="0" stopTime="0.00" timeLoss="15.44" rerouteNo="0" devices="tripinfo_NS_154" vType="car" speedFactor="0.85" vaporized=""/>
    <tripinfo id="SN_172" depart="172.00" departLane="3i_0" departPos="4.10" departSpeed="0.00" departDelay="0.00" arrival="256.00" arrivalLane="1o_0" arrivalPos="492.80" arrivalSpeed="10.88" duration="84.00" routeLength="995.70" waitingTime="2.00" waitingCount="1" stopTime="0.00" timeLoss="18.22" rerouteNo="0" devices="tripinfo_SN_172" vType="car" speedFactor="1.08" vaporized=""/>
    <tripinfo id="NS_156" depart="161.00" departLane="2i_0" departPos="4.10" departSpeed="0.00" departDelay="5.00" arrival="258.00" arrivalLane="3o_0" arrivalPos="492.80" arrivalSpeed="12.98" duration="97.00" routeLength="995.70" waitingTime="0.00" waitingCount="0" stopTime="0.00" timeLoss="36.25" rerouteNo="0" devices="tripinfo_NS_156" vType="car" speedFactor="1.17" vaporized=""/>
    <tripinfo id="WE_161" depart="163.00" departLane="1i_0" departPos="10.10" departSpeed="0.00" departDelay="2.00" arrival="258.00" arrivalLane="2o_0" arrivalPos="492.80" arrivalSpeed="10.40" duration="95.00" routeLength="989.90" waitingTime="0.00" waitingCount="0" stopTime="0.00" timeLoss="20.23" rerouteNo="0" devices="tripinfo_WE_161" vType="truck" speedFactor="0.95" vaporized=""/>
    <tripinfo id="WE_163" depart="167.00" departLane="1i_0" departPos="4.10" departSpeed="0.00" departDelay="4.00" arrival="260.00" arrivalLane="3o_0" arrivalPos="492.80" arrivalSpeed="12.23" duration="93.00" routeLength="990.53" waitingTime="0.00" waitingCount="0" stopTime="0.00" timeLoss="30.88" rerouteNo="0" devices="tripinfo_WE_163" vType="car" speedFactor="1.14" vaporized=""/>
    <tripinfo id="SN_178" depart="178.00" departLane="3i_0" departPos="4.10" departSpeed="0.00" departDelay="0.00" arrival="260.00" arrivalLane="4o_0" arrivalPos="492.80" arrivalSpeed="10.45" duration="82.00" routeLength="995.90" waitingTime="0.00" waitingCount="0" stopTime="0.00" timeLoss="12.50" rerouteNo="0" devices="tripinfo_SN_178" vType="car" speedFactor="1.02" vaporized=""/>
    <tripinfo id="WE_171" depart="171.00" departLane="1i_0" departPos="4.10" departSpeed="0.00" departDelay="0.00" arrival="264.00" arrivalLane="3o_0" arrivalPos="492.80" arrivalSpeed="9.78" duration="93.00" routeLength="990.53" waitingTime="1.00" waitingCount="1" stopTime="0.00" timeLoss="20.14" rerouteNo="0" devices="tripinfo_WE_171" vType="car" speedFactor="0.97" vaporized=""/>
    <tripinfo id="WE_190" depart="190.00" departLane="1i_0" departPos="4.10" departSpeed="0.00" departDelay="0.00" arrival="277.00" arrivalLane="4o_0" arrivalPos="492.80" arrivalSpeed="9.97" duration="87.00" routeLength="995.70" waitingTime="0.00" waitingCount="0" stopTime="0.00" timeLoss="10.85" rerouteNo="0" devices="tripinfo_WE_190" vType="car" speedFactor="0.94" vaporized=""/>
    <tripinfo id="EW_188" depart="188.00" departLane="4i_0" departPos="10.10" departSpeed="0.00" departDelay="0.00" arrival="280.00" arrivalLane="2o_0" arrivalPos="492.80" arrivalSpeed="10.45" duration="92.00" routeLength="989.70" waitingTime="2.00" waitingCount="1" stopTime="0.00" timeLoss="20.64" rerouteNo="0" devices="tripinfo_EW_188" vType="truck" speedFactor="0.99" vaporized=""/>
    <tripinfo id="SN_200" depart="200.00" departLane="3i_0" departPos="4.10" departSpeed="0.00" departDelay="0.00" arrival="289.00" arrivalLane="4o_0" arrivalPos="492.80" arrivalSpeed="8.77" duration="89.00" routeLength="995.90" waitingTime="0.00" waitingCount="0" stopTime="0.00" timeLoss="8.34" rerouteNo="0" devices="tripinfo_SN_200" vType="car" speedFactor="0.88" vaporized=""/>
    <tripinfo id="WE_209" depart="209.00" departLane="1i_0" departPos="4.10" departSpeed="0.00" departDelay="0.00" arrival="303.00" arrivalLane="3o_0" arrivalPos="492.80" arrivalSpeed="9.25" duration="94.00" routeLength="990.53" waitingTime="1.00" waitingCount="1" stopTime="0.00" timeLoss="15.75" rerouteNo="0" devices="tripinfo_WE_209" vType="car" speedFactor="0.91" vaporized=""/>
    <tripinfo id="NS_218" depart="219.00" departLane="2i_0" departPos="4.10" departSpeed="0.00" departDelay="1.00" arrival="304.00" arrivalLane="3o_0" arrivalPos="492.80" arrivalSpeed="10.63" duration="85.00" routeLength="995.70" waitingTime="0.00" waitingCount="0" stopTime="0.00" timeLoss="17.04" rerouteNo="0" devices="tripinfo_NS_218" vType="car" speedFactor="1.04" vaporized=""/>
    <tripinfo id="WE_212" depart="212.00" departLane="1i_0" departPos="4.10" departSpeed="0.00" departDelay="0.00" arrival="305.00" arrivalLane="2o_0" arrivalPos="492.80" arrivalSpeed="9.35" duration="93.00" routeLength="995.90" waitingTime="1.00" waitingCount="1" stopTime="0.00" timeLoss="15.51" rerouteNo="0" devices="tripinfo_WE_212" vType="car" speedFactor="0.91" vaporized=""/>
    <tripinfo id="WE_224" depart="224.00" departLane="1i_0" departPos="4.10" departSpeed="0.00" departDelay="0.00" arrival="306.00" arrivalLane="3o_0" arrivalPos="492.80" arrivalSpeed="10.91" duration="82.00" routeLength="990.53" waitingTime="0.00" waitingCount="0" stopTime="0.00" timeLoss="13.07" rerouteNo="0" devices="tripinfo_WE_224" vType="car" speedFactor="1.02" vaporized=""/>
    <tripinfo id="EW_221" depart="222.00" departLane="4i_0" departPos="4.10" departSpeed="0.00" departDelay="1.00" arrival="307.00" arrivalLane="2o_0" arrivalPos="492.80" arrivalSpeed="10.65" duration="85.00" routeLength="995.70" waitingTime="0.00" waitingCount="0" stopTime="0.00" timeLoss="15.55" rerouteNo="0" devices="tripinfo_EW_221" vType="car" speedFactor="1.02" vaporized=""/>
    <tripinfo id="SN_227" depart="227.00" departLane="3i_0" departPos="4.10" departSpeed="0.00" departDelay="0.00" arrival="312.00" arrivalLane="2o_0" arrivalPos="492.80" arrivalSpeed="10.13" duration="85.00" routeLength="990.53" waitingTime="0.00" waitingCount="0" stopTime="0.00" timeLoss="9.78" rerouteNo="0" devices="tripinfo_SN_227" vType="car" speedFactor="0.94" vaporized=""/>
    <tripinfo id="EW_233" depart="233.00" departLane="4i_0" departPos="4.10" departSpeed="0.00" departDelay="0.00" arrival="315.00" arrivalLane="2o_0" arrivalPos="492.80" arrivalSpeed="10.00" duration="82.00" routeLength="995.70" waitingTime="0.00" waitingCount="0" stopTime="0.00" timeLoss="10.33" rerouteNo="0" devices="tripinfo_EW_233" vType="car" speedFactor="0.98" vaporized=""/>
    <tripinfo id="WE_243" depart="243.00" departLane="1i_0" departPos="4.10" departSpeed="0.00" departDelay="0.00" arrival="318.00" arrivalLane="2o_0" arrivalPos="492.80" arrivalSpeed="10.92" duration="75.00" routeLength="995.90" waitingTime="0.00" waitingCount="0" stopTime="0.00" timeLoss="9.27" rerouteNo="0" devices="tripinfo_WE_243" vType="car" speedFactor="1.09" vaporized=""/>
    <tripinfo id="SN_238" depart="238.00" departLane="3i_0" departPos="4.10" departSpeed="0.00" departDelay="0.00" arrival="320.00" arrivalLane="4o_0" arrivalPos="492.80" arrivalSpeed="9.94" duration="82.00" routeLength="995.90" waitingTime="0.00" waitingCount="0" stopTime="0.00" timeLoss="9.48" rerouteNo="0" devices="tripinfo_SN_238" vType="car" speedFactor="0.98" vaporized=""/>
    <tripinfo id="SN_230" depart="230.00" departLane="3i_0" departPos="4.10" departSpeed="0.00" departDelay="0.00" arrival="321.00" arrivalLane="1o_0" arrivalPos="492.80" arrivalSpeed="9.58" duration="91.00" routeLength="995.70" waitingTime="2.00" waitingCount="1" stopTime="0.00" timeLoss="16.30" rerouteNo="0" devices="tripinfo_SN_230" vType="car" speedFactor="0.96" vaporized=""/>