<?xml version="1.0" encoding="UTF-8"?>

<!-- generated on 2024-05-04 21:07:18 by Eclipse SUMO sumo Version 1.19.0
<configuration xmlns:xsi="http://www.w3.org/2001/XMLSchema-instance" xsi:noNamespaceSchemaLocation="http://sumo.dlr.de/xsd/sumoConfiguration.xsd">

    <input>
        <net-file value="test5.net.xml"/>
        <route-files value="route_gen.rou.xml"/>
    </input>

    <output>
        <tripinfo-output value="tripinfo_epi951.xml"/>
    </output>

    <report>
        <no-warnings value="true"/>
    </report>

    <traci_server>
        <remote-port value="54559"/>
    </traci_server>

</configuration>
-->

<tripinfos xmlns:xsi="http://www.w3.org/2001/XMLSchema-instance" xsi:noNamespaceSchemaLocation="http://sumo.dlr.de/xsd/tripinfo_file.xsd">
    <tripinfo id="NS_8" depart="8.00" departLane="2i_0" departPos="4.10" departSpeed="0.00" departDelay="0.00" arrival="84.00" arrivalLane="3o_0" arrivalPos="492.80" arrivalSpeed="10.98" duration="76.00" routeLength="995.70" waitingTime="0.00" waitingCount="0" stopTime="0.00" timeLoss="9.06" rerouteNo="0" devices="tripinfo_NS_8" vType="car" speedFactor="1.06" vaporized=""/>
    <tripinfo id="EW_17" depart="17.00" departLane="4i_0" departPos="4.10" departSpeed="0.00" departDelay="0.00" arrival="91.00" arrivalLane="3o_0" arrivalPos="492.80" arrivalSpeed="11.02" duration="74.00" routeLength="995.90" waitingTime="0.00" waitingCount="0" stopTime="0.00" timeLoss="8.82" rerouteNo="0" devices="tripinfo_EW_17" vType="car" speedFactor="1.08" vaporized=""/>
    <tripinfo id="EW_13" depart="13.00" departLane="4i_0" departPos="4.10" departSpeed="0.00" departDelay="0.00" arrival="93.00" arrivalLane="2o_0" arrivalPos="492.80" arrivalSpeed="10.58" duration="80.00" routeLength="995.70" waitingTime="0.00" waitingCount="0" stopTime="0.00" timeLoss="9.99" rerouteNo="0" devices="tripinfo_EW_13" vType="car" speedFactor="1.01" vaporized=""/>
    <tripinfo id="NS_11" depart="11.00" departLane="2i_0" departPos="4.10" departSpeed="0.00" departDelay="0.00" arrival="95.00" arrivalLane="4o_0" arrivalPos="492.80" arrivalSpeed="9.95" duration="84.00" routeLength="990.53" waitingTime="0.00" waitingCount="0" stopTime="0.00" timeLoss="8.32" rerouteNo="0" devices="tripinfo_NS_11" vType="car" speedFactor="0.94" vaporized=""/>
    <tripinfo id="SN_17" depart="17.00" departLane="3i_0" departPos="10.10" departSpeed="0.00" departDelay="0.00" arrival="98.00" arrivalLane="2o_0" arrivalPos="492.80" arrivalSpeed="10.89" duration="81.00" routeLength="984.53" waitingTime="0.00" waitingCount="0" stopTime="0.00" timeLoss="12.01" rerouteNo="0" devices="tripinfo_SN_17" vType="truck" speedFactor="1.02" vaporized=""/>
    <tripinfo id="EW_20" depart="20.00" departLane="4i_0" departPos="4.10" departSpeed="0.00" departDelay="0.00" arrival="108.00" arrivalLane="3o_0" arrivalPos="492.80" arrivalSpeed="9.13" duration="88.00" routeLength="995.90" waitingTime="0.00" waitingCount="0" stopTime="0.00" timeLoss="8.16" rerouteNo="0" devices="tripinfo_EW_20" vType="car" speedFactor="0.89" vaporized=""/>
    <tripinfo id="NS_18" depart="18.00" departLane="2i_0" departPos="4.10" departSpeed="0.00" departDelay="0.00" arrival="114.00" arrivalLane="4o_0" arrivalPos="492.80" arrivalSpeed="8.78" duration="96.00" routeLength="990.53" waitingTime="0.00" waitingCount="0" stopTime="0.00" timeLoss="10.67" rerouteNo="0" devices="tripinfo_NS_18" vType="car" speedFactor="0.83" vaporized=""/>
    <tripinfo id="SN_19" depart="21.00" departLane="3i_0" departPos="4.10" departSpeed="0.00" departDelay="2.00" arrival="115.00" arrivalLane="4o_0" arrivalPos="492.80" arrivalSpeed="10.40" duration="94.00" routeLength="995.90" waitingTime="0.00" waitingCount="0" stopTime="0.00" timeLoss="26.47" rerouteNo="0" devices="tripinfo_SN_19" vType="car" speedFactor="1.05" vaporized=""/>
    <tripinfo id="EW_34" depart="34.00" departLane="4i_0" departPos="4.10" departSpeed="0.00" departDelay="0.00" arrival="116.00" arrivalLane="1o_0" arrivalPos="492.80" arrivalSpeed="11.29" duration="82.00" routeLength="990.53" waitingTime="2.00" waitingCount="1" stopTime="0.00" timeLoss="13.07" rerouteNo="0" devices="tripinfo_EW_34" vType="car" speedFactor="1.03" vaporized=""/>
    <tripinfo id="WE_35" depart="35.00" departLane="1i_0" departPos="4.10" departSpeed="0.00" departDelay="0.00" arrival="117.00" arrivalLane="4o_0" arrivalPos="492.80" arrivalSpeed="11.63" duration="82.00" routeLength="995.70" waitingTime="0.00" waitingCount="0" stopTime="0.00" timeLoss="18.79" rerouteNo="0" devices="tripinfo_WE_35" vType="car" speedFactor="1.12" vaporized=""/>
    <tripinfo id="SN_25" depart="25.00" departLane="3i_0" departPos="4.10" departSpeed="0.00" departDelay="0.00" arrival="118.00" arrivalLane="2o_0" arrivalPos="492.80" arrivalSpeed="8.26" duration="93.00" routeLength="990.53" waitingTime="0.00" waitingCount="0" stopTime="0.00" timeLoss="10.30" rerouteNo="0" devices="tripinfo_SN_25" vType="car" speedFactor="0.86" vaporized=""/>
    <tripinfo id="EW_25" depart="25.00" departLane="4i_0" departPos="4.10" departSpeed="0.00" departDelay="0.00" arrival="119.00" arrivalLane="2o_0" arrivalPos="492.80" arrivalSpeed="9.31" duration="94.00" routeLength="995.70" waitingTime="1.00" waitingCount="1" stopTime="0.00" timeLoss="18.79" rerouteNo="0" devices="tripinfo_EW_25" vType="car" speedFactor="0.94" vaporized=""/>
    <tripinfo id="SN_34" depart="34.00" departLane="3i_0" departPos="10.10" departSpeed="0.00" departDelay="0.00" arrival="120.00" arrivalLane="1o_0" arrivalPos="492.80" arrivalSpeed="10.88" duration="86.00" routeLength="989.70" waitingTime="0.00" waitingCount="0" stopTime="0.00" timeLoss="16.90" rerouteNo="0" devices="tripinfo_SN_34" vType="truck" speedFactor="1.02" vaporized=""/>
    <tripinfo id="SN_28" depart="28.00" departLane="3i_0" departPos="4.10" departSpeed="0.00" departDelay="0.00" arrival="121.00" arrivalLane="2o_0" arrivalPos="492.80" arrivalSpeed="11.42" duration="93.00" routeLength="990.53" waitingTime="2.00" waitingCount="1" stopTime="0.00" timeLoss="28.27" rerouteNo="0" devices="tripinfo_SN_28" vType="car" speedFactor="1.09" vaporized=""/>
    <tripinfo id="NS_39" depart="39.00" departLane="2i_0" departPos="10.10" departSpeed="0.00" departDelay="0.00" arrival="125.00" arrivalLane="4o_0" arrivalPos="492.80" arrivalSpeed="10.16" duration="86.00" routeLength="984.53" waitingTime="0.00" waitingCount="0" stopTime="0.00" timeLoss="13.19" rerouteNo="0" devices="tripinfo_NS_39" vType="truck" speedFactor="0.96" vaporized=""/>
    <tripinfo id="SN_48" depart="48.00" departLane="3i_0" departPos="4.10" departSpeed="0.00" departDelay="0.00" arrival="126.00" arrivalLane="2o_0" arrivalPos="492.80" arrivalSpeed="12.29" duration="78.00" routeLength="990.53" waitingTime="0.00" waitingCount="0" stopTime="0.00" timeLoss="17.17" rerouteNo="0" devices="tripinfo_SN_48" vType="car" speedFactor="1.16" vaporized=""/>
    <tripinfo id="EW_46" depart="46.00" departLane="4i_0" departPos="4.10" departSpeed="0.00" departDelay="0.00" arrival="130.00" arrivalLane="1o_0" arrivalPos="492.80" arrivalSpeed="9.62" duration="84.00" routeLength="990.53" waitingTime="0.00" waitingCount="0" stopTime="0.00" timeLoss="9.30" rerouteNo="0" devices="tripinfo_EW_46" vType="car" speedFactor="0.94" vaporized=""/>
    <tripinfo id="SN_37" depart="39.00" departLane="3i_0" departPos="10.10" departSpeed="0.00" departDelay="2.00" arrival="133.00" arrivalLane="1o_0" arrivalPos="492.80" arrivalSpeed="10.85" duration="94.00" routeLength="989.70" waitingTime="0.00" waitingCount="0" stopTime="0.00" timeLoss="22.85" rerouteNo="0" devices="tripinfo_SN_37" vType="truck" speedFactor="1.00" vaporized=""/>
    <tripinfo id="SN_49" depart="50.00" departLane="3i_0" departPos="4.10" departSpeed="0.00" departDelay="1.00" arrival="136.00" arrivalLane="4o_0" arrivalPos="492.80" arrivalSpeed="10.34" duration="86.00" routeLength="995.90" waitingTime="0.00" waitingCount="0" stopTime="0.00" timeLoss="15.30" rerouteNo="0" devices="tripinfo_SN_49" vType="car" speedFactor="1.01" vaporized=""/>
    <tripinfo id="WE_45" depart="45.00" departLane="1i_0" departPos="4.10" departSpeed="0.00" departDelay="0.00" arrival="138.00" arrivalLane="3o_0" arrivalPos="492.80" arrivalSpeed="9.36" duration="93.00" routeLength="990.53" waitingTime="2.00" waitingCount="1" stopTime="0.00" timeLoss="12.19" rerouteNo="0" devices="tripinfo_WE_45" vType="car" speedFactor="0.88" vaporized=""/>
    <tripinfo id="NS_47" depart="47.00" departLane="2i_0" departPos="4.10" departSpeed="0.00" departDelay="0.00" arrival="140.00" arrivalLane="3o_0" arrivalPos="492.80" arrivalSpeed="9.49" duration="93.00" routeLength="995.70" waitingTime="1.00" waitingCount="1" stopTime="0.00" timeLoss="16.77" rerouteNo="0" devices="tripinfo_NS_47" vType="car" speedFactor="0.94" vaporized=""/>
    <tripinfo id="WE_49" depart="49.00" departLane="1i_0" departPos="4.10" departSpeed="0.00" departDelay="0.00" arrival="141.00" arrivalLane="3o_0" arrivalPos="492.80" arrivalSpeed="10.16" duration="92.00" routeLength="990.53" waitingTime="4.00" waitingCount="2" stopTime="0.00" timeLoss="22.94" rerouteNo="0" devices="tripinfo_WE_49" vType="car" speedFactor="1.02" vaporized=""/>
    <tripinfo id="NS_53" depart="53.00" departLane="2i_0" departPos="4.10" departSpeed="0.00" departDelay="0.00" arrival="145.00" arrivalLane="4o_0" arrivalPos="492.80" arrivalSpeed="9.05" duration="92.00" routeLength="990.53" waitingTime="0.00" waitingCount="0" stopTime="0.00" timeLoss="13.00" rerouteNo="0" devices="tripinfo_NS_53" vType="car" speedFactor="0.89" vaporized=""/>
    <tripinfo id="WE_52" depart="52.00" departLane="1i_0" departPos="4.10" departSpeed="0.00" departDelay="0.00" arrival="147.00" arrivalLane="4o_0" arrivalPos="492.80" arrivalSpeed="10.36" duration="95.00" routeLength="995.70" waitingTime="1.00" waitingCount="1" stopTime="0.00" timeLoss="22.14" rerouteNo="0" devices="tripinfo_WE_52" vType="car" speedFactor="0.97" vaporized=""/>
    <tripinfo id="WE_56" depart="56.00" departLane="1i_0" departPos="10.10" departSpeed="0.00" departDelay="0.00" arrival="149.00" arrivalLane="2o_0" arrivalPos="492.80" arrivalSpeed="9.78" duration="93.00" routeLength="989.90" waitingTime="0.00" waitingCount="0" stopTime="0.00" timeLoss="15.73" rerouteNo="0" devices="tripinfo_WE_56" vType="truck" speedFactor="0.91" vaporized=""/>
    <tripinfo id="WE_59" depart="60.00" departLane="1i_0" departPos="4.10" departSpeed="0.00" departDelay="1.00" arrival="160.00" arrivalLane="3o_0" arrivalPos="492.80" arrivalSpeed="8.75" duration="100.00" routeLength="990.53" waitingTime="2.00" waitingCount="1" stopTime="0.00" timeLoss="18.99" rerouteNo="0" devices="tripinfo_WE_59" vType="car" speedFactor="0.87" vaporized=""/>
    <tripinfo id="EW_75" depart="75.00" departLane="4i_0" departPos="4.10" departSpeed="0.00" departDelay="0.00" arrival="162.00" arrivalLane="3o_0" arrivalPos="492.80" arrivalSpeed="8.95" duration="87.00" routeLength="995.90" waitingTime="0.00" waitingCount="0" stopTime="0.00" timeLoss="9.24" rerouteNo="0" devices="tripinfo_EW_75" vType="car" speedFactor="0.92" vaporized=""/>
    <tripinfo id="EW_86" depart="86.00" departLane="4i_0" departPos="4.10" departSpeed="0.00" departDelay="0.00" arrival="163.00" arrivalLane="3o_0" arrivalPos="492.80" arrivalSpeed="11.57" duration="77.00" routeLength="995.90" waitingTime="2.00" waitingCount="1" stopTime="0.00" timeLoss="14.30" rerouteNo="0" devices="tripinfo_EW_86" vType="car" speedFactor="1.13" vaporized=""/>
    <tripinfo id="WE_95" depart="95.00" departLane="1i_0" departPos="4.10" departSpeed="0.00" departDelay="0.00" arrival="170.00" arrivalLane="4o_0" arrivalPos="492.80" arrivalSpeed="11.67" duration="75.00" routeLength="995.70" waitingTime="0.00" waitingCount="0" stopTime="0.00" timeLoss="13.49" rerouteNo="0" devices="tripinfo_WE_95" vType="car" speedFactor="1.15" vaporized=""/>
    <tripinfo id="SN_83" depart="84.00" departLane="3i_0" departPos="4.10" departSpeed="0.00" departDelay="1.00" arrival="173.00" arrivalLane="1o_0" arrivalPos="492.80" arrivalSpeed="10.30" duration="89.00" routeLength="995.70" waitingTime="2.00" waitingCount="1" stopTime="0.00" timeLoss="14.01" rerouteNo="0" devices="tripinfo_SN_83" vType="car" speedFactor="0.95" vaporized=""/>
    <tripinfo id="SN_91" depart="91.00" departLane="3i_0" departPos="4.10" departSpeed="0.00" departDelay="0.00" arrival="174.00" arrivalLane="1o_0" arrivalPos="492.80" arrivalSpeed="12.98" duration="83.00" routeLength="995.70" waitingTime="0.00" waitingCount="0" stopTime="0.00" timeLoss="23.03" rerouteNo="0" devices="tripinfo_SN_91" vType="car" speedFactor="1.18" vaporized=""/>
    <tripinfo id="NS_90" depart="90.00" departLane="2i_0" departPos="4.10" departSpeed="0.00" departDelay="0.00" arrival="177.00" arrivalLane="3o_0" arrivalPos="492.80" arrivalSpeed="9.31" duration="87.00" routeLength="995.70" waitingTime="0.00" waitingCount="0" stopTime="0.00" timeLoss="10.96" rerouteNo="0" devices="tripinfo_NS_90" vType="car" speedFactor="0.93" vaporized=""/>
    <tripinfo id="WE_100" depart="100.00" departLane="1i_0" departPos="4.10" departSpeed="0.00" departDelay="0.00" arrival="183.00" arrivalLane="2o_0" arrivalPos="492.80" arrivalSpeed="10.06" duration="83.00" routeLength="995.90" waitingTime="0.00" waitingCount="0" stopTime="0.00" timeLoss="12.33" rerouteNo="0" devices="tripinfo_WE_100" vType="car" speedFactor="1.01" vaporized=""/>
    <tripinfo id="SN_107" depart="108.00" departLane="3i_0" departPos="4.10" departSpeed="0.00" departDelay="1.00" arrival="183.00" arrivalLane="4o_0" arrivalPos="492.80" arrivalSpeed="12.92" duration="75.00" routeLength="995.90" waitingTime="2.00" waitingCount="1" stopTime="0.00" timeLoss="14.06" rerouteNo="0" devices="tripinfo_SN_107" vType="car" speedFactor="1.17" vaporized=""/>
    <tripinfo id="EW_110" depart="110.00" departLane="4i_0" departPos="4.10" departSpeed="0.00" departDelay="0.00" arrival="188.00" arrivalLane="3o_0" arrivalPos="492.80" arrivalSpeed="10.14" duration="78.00" routeLength="995.90" waitingTime="0.00" waitingCount="0" stopTime="0.00" timeLoss="8.32" rerouteNo="0" devices="tripinfo_EW_110" vType="car" speedFactor="1.02" vaporized=""/>
    <tripinfo id="SN_113" depart="113.00" departLane="3i_0" departPos="4.10" departSpeed="0.00" departDelay="0.00" arrival="189.00" arrivalLane="2o_0" arrivalPos="492.80" arrivalSpeed="12.40" duration="76.00" routeLength="990.53" waitingTime="0.00" waitingCount="0" stopTime="0.00" timeLoss="15.67" rerouteNo="0" devices="tripinfo_SN_113" vType="car" speedFactor="1.18" vaporized=""/>
    <tripinfo id="NS_109" depart="109.00" departLane="2i_0" departPos="4.10" departSpeed="0.00" departDelay="0.00" arrival="193.00" arrivalLane="1o_0" arrivalPos="492.80" arrivalSpeed="10.12" duration="84.00" routeLength="995.90" waitingTime="1.00" waitingCount="1" stopTime="0.00" timeLoss="13.03" rerouteNo="0" devices="tripinfo_NS_109" vType="car" speedFactor="0.99" vaporized=""/>
    <tripinfo id="SN_115" depart="115.00" departLane="3i_0" departPos="4.10" departSpeed="0.00" departDelay="0.00" arrival="198.00" arrivalLane="1o_0" arrivalPos="492.80" arrivalSpeed="11.65" duration="83.00" routeLength="995.70" waitingTime="1.00" waitingCount="1" stopTime="0.00" timeLoss="18.20" rerouteNo="0" devices="tripinfo_SN_115" vType="car" speedFactor="1.10" vaporized=""/>
    <tripinfo id="NS_112" depart="112.00" departLane="2i_0" departPos="4.10" departSpeed="0.00" departDelay="0.00" arrival="205.00" arrivalLane="4o_0" arrivalPos="492.80" arrivalSpeed="10.16" duration="93.00" routeLength="990.53" waitingTime="5.00" waitingCount="1" stopTime="0.00" timeLoss="20.24" rerouteNo="0" devices="tripinfo_NS_112" vType="car" speedFactor="0.97" vaporized=""/>
    <tripinfo id="EW_117" depart="117.00" departLane="4i_0" departPos="4.10" departSpeed="0.00" departDelay="0.00" arrival="206.00" arrivalLane="2o_0" arrivalPos="492.80" arrivalSpeed="9.18" duration="89.00" routeLength="995.70" waitingTime="0.00" waitingCount="0" stopTime="0.00" timeLoss="10.02" rerouteNo="0" devices="tripinfo_EW_117" vType="car" speedFactor="0.90" vaporized=""/>
    <tripinfo id="EW_123" depart="125.00" departLane="4i_0" departPos="4.10" departSpeed="0.00" departDelay="2.00" arrival="210.00" arrivalLane="2o_0" arrivalPos="492.80" arrivalSpeed="11.32" duration="85.00" routeLength="995.70" waitingTime="0.00" waitingCount="0" stopTime="0.00" timeLoss="15.82" rerouteNo="0" devices="tripinfo_EW_123" vType="car" speedFactor="1.03" vaporized=""/>
    <tripinfo id="SN_127" depart="127.00" departLane="3i_0" departPos="4.10" departSpeed="0.00" departDelay="0.00" arrival="210.00" arrivalLane="4o_0" arrivalPos="492.80" arrivalSpeed="9.33" duration="83.00" routeLength="995.90" waitingTime="0.00" waitingCount="0" stopTime="0.00" timeLoss="8.66" rerouteNo="0" devices="tripinfo_SN_127" vType="car" speedFactor="0.96" vaporized=""/>
    <tripinfo id="EW_131" depart="131.00" departLane="4i_0" departPos="4.10" departSpeed="0.00" departDelay="0.00" arrival="210.00" arrivalLane="1o_0" arrivalPos="492.80" arrivalSpeed="10.54" duration="79.00" routeLength="990.53" waitingTime="0.00" waitingCount="0" stopTime="0.00" timeLoss="11.59" rerouteNo="0" devices="tripinfo_EW_131" vType="car" speedFactor="1.04" vaporized=""/>
    <tripinfo id="NS_129" depart="129.00" departLane="2i_0" departPos="4.10" departSpeed="0.00" departDelay="0.00" arrival="211.00" arrivalLane="4o_0" arrivalPos="492.80" arrivalSpeed="10.62" duration="82.00" routeLength="990.53" waitingTime="1.00" waitingCount="1" stopTime="0.00" timeLoss="14.29" rerouteNo="0" devices="tripinfo_NS_129" vType="car" speedFactor="1.04" vaporized=""/>
    <tripinfo id="WE_129" depart="130.00" departLane="1i_0" departPos="4.10" departSpeed="0.00" departDelay="1.00" arrival="215.00" arrivalLane="4o_0" arrivalPos="492.80" arrivalSpeed="11.64" duration="85.00" routeLength="995.70" waitingTime="6.00" waitingCount="2" stopTime="0.00" timeLoss="20.33" rerouteNo="0" devices="tripinfo_WE_129" vType="car" speedFactor="1.09" vaporized=""/>
    <tripinfo id="NS_134" depart="134.00" departLane="2i_0" departPos="4.10" departSpeed="0.00" departDelay="0.00" arrival="216.00" arrivalLane="3o_0" arrivalPos="492.80" arrivalSpeed="10.59" duration="82.00" routeLength="995.70" waitingTime="0.00" waitingCount="0" stopTime="0.00" timeLoss="10.38" rerouteNo="0" devices="tripinfo_NS_134" vType="car" speedFactor="1.00" vaporized=""/>
    <tripinfo id="SN_134" depart="134.00" departLane="3i_0" departPos="10.10" departSpeed="0.00" departDelay="0.00" arrival="220.00" arrivalLane="2o_0" arrivalPos="492.80" arrivalSpeed="10.39" duration="86.00" routeLength="984.53" waitingTime="0.00" waitingCount="0" stopTime="0.00" timeLoss="11.68" rerouteNo="0" devices="tripinfo_SN_134" vType="truck" speedFactor="0.95" vaporized=""/>
    <tripinfo id="WE_133" depart="134.00" departLane="1i_0" departPos="10.10" departSpeed="0.00" departDelay="1.00" arrival="222.00" arrivalLane="4o_0" arrivalPos="492.80" arrivalSpeed="11.28" duration="88.00" routeLength="989.70" waitingTime="0.00" waitingCount="0" stopTime="0.00" timeLoss="20.13" rerouteNo="0" devices="tripinfo_WE_133" vType="truck" speedFactor="1.04" vaporized=""/>
    <tripinfo id="SN_137" depart="141.00" departLane="3i_0" departPos="4.10" departSpeed="0.00" departDelay="4.00" arrival="234.00" arrivalLane="4o_0" arrivalPos="492.80" arrivalSpeed="9.23" duration="93.00" routeLength="995.90" waitingTime="0.00" waitingCount="0" stopTime="0.00" timeLoss="12.52" rerouteNo="0" devices="tripinfo_SN_137" vType="car" speedFactor="0.88" vaporized=""/>
    <tripinfo id="EW_159" depart="159.00" departLane="4i_0" departPos="4.10" departSpeed="0.00" departDelay="0.00" arrival="239.00" arrivalLane="2o_0" arrivalPos="492.80" arrivalSpeed="11.14" duration="80.00" routeLength="995.70" waitingTime="0.00" waitingCount="0" stopTime="0.00" timeLoss="10.14" rerouteNo="0" devices="tripinfo_EW_159" vType="car" speedFactor="1.02" vaporized=""/>
    <tripinfo id="SN_166" depart="166.00" departLane="3i_0" departPos="4.10" departSpeed="0.00" departDelay="0.00" arrival="239.00" arrivalLane="1o_0" arrivalPos="492.80" arrivalSpeed="11.94" duration="73.00" routeLength="995.70" waitingTime="0.00" waitingCount="0" stopTime="0.00" timeLoss="10.87" rerouteNo="0" devices="tripinfo_SN_166" vType="car" speedFactor="1.14" vaporized=""/>
    <tripinfo id="EW_160" depart="162.00" departLane="4i_0" departPos="4.10" departSpeed="0.00" departDelay="2.00" arrival="241.00" arrivalLane="2o_0" arrivalPos="492.80" arrivalSpeed="11.59" duration="79.00" routeLength="995.70" waitingTime="0.00" waitingCount="0" stopTime="0.00" timeLoss="14.03" rerouteNo="0" devices="tripinfo_EW_160" vType="car" speedFactor="1.10" vaporized=""/>
    <tripinfo id="NS_147" depart="149.00" departLane="2i_0" departPos="4.10" departSpeed="0.00" departDelay="2.00" arrival="243.00" arrivalLane="3o_0" arrivalPos="492.80" arrivalSpeed="9.00" duration="94.00" routeLength="995.70" waitingTime="0.00" waitingCount="0" stopTime="0.00" timeLoss="10.54" rerouteNo="0" devices="tripinfo_NS_147" vType="car" speedFactor="0.85" vaporized=""/>
    <tripinfo id="SN_151" depart="151.00" departLane="3i_0" departPos="4.10" departSpeed="0.00" departDelay="0.00" arrival="245.00" arrivalLane="4o_0" arrivalPos="492.80" arrivalSpeed="9.43" duration="94.00" routeLength="995.90" waitingTime="0.00" waitingCount="0" stopTime="0.00" timeLoss="10.98" rerouteNo="0" devices="tripinfo_SN_151" vType="car" speedFactor="0.85" vaporized=""/>
    <tripinfo id="NS_161" depart="161.00" departLane="2i_0" departPos="4.10" departSpeed="0.00" departDelay="0.00" arrival="246.00" arrivalLane="3o_0" arrivalPos="492.80" arrivalSpeed="10.52" duration="85.00" routeLength="995.70" waitingTime="0.00" waitingCount="0" stopTime="0.00" timeLoss="14.01" rerouteNo="0" devices="tripinfo_NS_161" vType="car" speedFactor="1.00" vaporized=""/>
    <tripinfo id="NS_157" depart="157.00" departLane="2i_0" departPos="4.10" departSpeed="0.00" departDelay="0.00" arrival="247.00" arrivalLane="4o_0" arrivalPos="492.80" arrivalSpeed="12.14" duration="90.00" routeLength="990.53" waitingTime="3.00" waitingCount="1" stopTime="0.00" timeLoss="29.26" rerouteNo="0" devices="tripinfo_NS_157" vType="car" speedFactor="1.17" vaporized=""/>
    <tripinfo id="NS_164" depart="164.00" departLane="2i_0" departPos="4.10" departSpeed="0.00" departDelay="0.00" arrival="250.00" arrivalLane="4o_0" arrivalPos="492.80" arrivalSpeed="10.14" duration="86.00" routeLength="990.53" waitingTime="0.00" waitingCount="0" stopTime="0.00" timeLoss="14.77" rerouteNo="0" devices="tripinfo_NS_164" vType="car" speedFactor="1.00" vaporized=""/>
    <tripinfo id="SN_177" depart="177.00" departLane="3i_0" departPos="4.10" departSpeed="0.00" departDelay="0.00" arrival="257.00" arrivalLane="2o_0" arrivalPos="492.80" arrivalSpeed="11.34" duration="80.00" routeLength="990.53" waitingTime="0.00" waitingCount="0" stopTime="0.00" timeLoss="11.05" rerouteNo="0" devices="tripinfo_SN_177" vType="car" speedFactor="1.02" vaporized=""/>
    <tripinfo id="NS_166" depart="168.00" departLane="2i_0" departPos="10.10" departSpeed="0.00" departDelay="2.00" arrival="258.00" arrivalLane="3o_0" arrivalPos="492.80" arrivalSpeed="10.39" duration="90.00" routeLength="989.70" waitingTime="0.00" waitingCount="0" stopTime="0.00" timeLoss="15.03" rerouteNo="0" devices="tripinfo_NS_166" vType="truck" speedFactor="0.95" vaporized=""/>
    <tripinfo id="WE_186" depart="186.00" departLane="1i_0" departPos="4.10" departSpeed="0.00" departDelay="0.00" arrival="260.00" arrivalLane="4o_0" arrivalPos="492.80" arrivalSpeed="11.71" duration="74.00" routeLength="995.70" waitingTime="0.00" waitingCount="0" stopTime="0.00" timeLoss="10.34" rerouteNo="0" devices="tripinfo_WE_186" vType="car" speedFactor="1.12" vaporized=""/>
    <tripinfo id="SN_182" depart="182.00" departLane="3i_0" departPos="4.10" departSpeed="0.00" departDelay="0.00" arrival="263.00" arrivalLane="2o_0" arrivalPos="492.80" arrivalSpeed="11.33" duration="81.00" routeLength="990.53" waitingTime="1.00" waitingCount="1" stopTime="0.00" timeLoss="15.63" rerouteNo="0" devices="tripinfo_SN_182" vType="car" speedFactor="1.08" vaporized=""/>
    <tripinfo id="WE_191" depart="191.00" departLane="1i_0" departPos="4.10" departSpeed="0.00" departDelay="0.00" arrival="269.00" arrivalLane="3o_0" arrivalPos="492.80" arrivalSpeed="11.25" duration="78.00" routeLength="990.53" waitingTime="0.00" waitingCount="0" stopTime="0.00" timeLoss="8.23" rerouteNo="0" devices="tripinfo_WE_191" vType="car" speedFactor="1.02" vaporized=""/>
    <tripinfo id="EW_191" depart="191.00" departLane="4i_0" departPos="4.10" departSpeed="0.00" departDelay="0.00" arrival="272.00" arrivalLane="3o_0" arrivalPos="492.80" arrivalSpeed="10.20" duration="81.00" routeLength="995.90" waitingTime="0.00" waitingCount="0" stopTime="0.00" timeLoss="9.01" rerouteNo="0" devices="tripinfo_EW_191" vType="car" speedFactor="0.99" vaporized=""/>
    <tripinfo id="EW_180" depart="180.00" departLane="4i_0" departPos="4.10" departSpeed="0.00" departDelay="0.00" arrival="273.00" arrivalLane="2o_0" arrivalPos="492.80" arrivalSpeed="10.07" duration="93.00" routeLength="995.70" waitingTime="5.00" waitingCount="2" stopTime="0.00" timeLoss="19.57" rerouteNo="0" devices="tripinfo_EW_180" vType="car" speedFactor="0.97" vaporized=""/>
    <tripinfo id="WE_193" depart="194.00" departLane="1i_0" departPos="4.10" departSpeed="0.00" departDelay="1.00" arrival="278.00" arrivalLane="2o_0" arrivalPos="492.80" arrivalSpeed="10.20" duration="84.00" routeLength="995.90" waitingTime="0.00" waitingCount="0" stopTime="0.00" timeLoss="8.38" rerouteNo="0" devices="tripinfo_WE_193" vType="car" speedFactor="0.94" vaporized=""/>
    <tripinfo id="SN_196" depart="196.00" departLane="3i_0" departPos="4.10" departSpeed="0.00" departDelay="0.00" arrival="283.00" arrivalLane="4o_0" arrivalPos="492.80" arrivalSpeed="9.19" duration="87.00" routeLength="995.90" waitingTime="0.00" waitingCount="0" stopTime="0.00" timeLoss="8.75" rerouteNo="0" devices="tripinfo_SN_196" vType="car" speedFactor="0.91" vaporized=""/>
    <tripinfo id="WE_195" depart="198.00" departLane="1i_0" departPos="4.10" departSpeed="0.00" departDelay="3.00" arrival="287.00" arrivalLane="3o_0" arrivalPos="492.80" arrivalSpeed="8.74" duration="89.00" routeLength="990.53" waitingTime="0.00" waitingCount="0" stopTime="0.00" timeLoss="8.68" rerouteNo="0" devices="tripinfo_WE_195" vType="car" speedFactor="0.88" vaporized=""/>
    <tripinfo id="WE_202" depart="202.00" departLane="1i_0" departPos="4.10" departSpeed="0.00" departDelay="0.00" arrival="290.00" arrivalLane="4o_0" arrivalPos="492.80" arrivalSpeed="9.27" duration="88.00" routeLength="995.70" waitingTime="0.00" waitingCount="0" stopTime="0.00" timeLoss="10.53" rerouteNo="0" devices="tripinfo_WE_202" vType="car" speedFactor="0.91" vaporized=""/>
    <tripinfo id="SN_203" depart="203.00" departLane="3i_0" departPos="10.10" departSpeed="0.00" departDelay="0.00" arrival="291.00" arrivalLane="1o_0" arrivalPos="492.80" arrivalSpeed="10.74" duration="88.00" routeLength="989.70" waitingTime="0.00" waitingCount="0" stopTime="0.00" timeLoss="18.61" rerouteNo="0" devices="tripinfo_SN_203" vType="truck" speedFactor="1.02" vaporized=""/>
    <tripinfo id="NS_209" depart="210.00" departLane="2i_0" departPos="4.10" departSpeed="0.00" departDelay="1.00" arrival="294.00" arrivalLane="4o_0" arrivalPos="492.80" arrivalSpeed="9.79" duration="84.00" routeLength="990.53" waitingTime="0.00" waitingCount="0" stopTime="0.00" timeLoss="9.14" rerouteNo="0" devices="tripinfo_NS_209" vType="car" speedFactor="0.94" vaporized=""/>
    <tripinfo id="SN_205" depart="208.00" departLane="3i_0" departPos="10.10" departSpeed="0.00" departDelay="3.00" arrival="298.00" arrivalLane="2o_0" arrivalPos="492.80" arrivalSpeed="11.07" duration="90.00" routeLength="984.53" waitingTime="0.00" waitingCount="0" stopTime="0.00" timeLoss="20.47" rerouteNo="0" devices="tripinfo_SN_205" vType="truck" speedFactor="1.01" vaporized=""/>
    <tripinfo id="EW_208" depart="211.00" departLane="4i_0" departPos="4.10" departSpeed="0.00" departDelay="3.00" arrival="298.00" arrivalLane="3o_0" arrivalPos="492.80" arrivalSpeed="9.61" duration="87.00" routeLength="995.90" waitingTime="1.00" waitingCount="1" stopTime="0.00" timeLoss="13.89" rerouteNo="0" devices="tripinfo_EW_208" vType="car" speedFactor="0.97" vaporized=""/>
    <tripinfo id="WE_208" depart="208.00" departLane="1i_0" departPos="4.10" departSpeed="0.00" departDelay="0.00" arrival="300.00" arrivalLane="4o_0" arrivalPos="492.80" arrivalSpeed="10.87" duration="92.00" routeLength="995.70" waitingTime="9.00" waitingCount="2" stopTime="0.00" timeLoss="22.18" rerouteNo="0" devices="tripinfo_WE_208" vType="car" speedFactor="1.02" vaporized=""/>
    <tripinfo id="SN_210" depart="212.00" departLane="3i_0" departPos="4.10" departSpeed="0.00" departDelay="2.00" arrival="301.00" arrivalLane="4o_0" arrivalPos="492.80" arrivalSpeed="11.61" duration="89.00" routeLength="995.90" waitingTime="0.00" waitingCount="0" stopTime="0.00" timeLoss="21.98" rerouteNo="0" devices="tripinfo_SN_210" vType="car" speedFactor="1.06" vaporized=""/>
    <tripinfo id="NS_215" depart="215.00" departLane="2i_0" departPos="4.10" departSpeed="0.00" departDelay="0.00" arrival="301.00" arrivalLane="3o_0" arrivalPos="492.80" arrivalSpeed="10.58" duration="86.00" routeLength="995.70" waitingTime="0.00" waitingCount="0" stopTime="0.00" timeLoss="13.61" rerouteNo="0" devices="tripinfo_NS_215" vType="car" speedFactor="0.98" vaporized=""/>
    <tripinfo id="WE_223" depart="223.00" departLane="1i_0" departPos="4.10" departSpeed="0.00" departDelay="0.00" arrival="303.00" arrivalLane="3o_0" arrivalPos="492.80" arrivalSpeed="11.08" duration="80.00" routeLength="990.53" waitingTime="0.00" waitingCount="0" stopTime="0.00" timeLoss="9.39" rerouteNo="0" devices="tripinfo_WE_223" vType="car" speedFactor="1.01" vaporized=""/>