<?xml version="1.0" encoding="UTF-8"?>

<!-- generated on 2024-05-04 17:17:13 by Eclipse SUMO sumo Version 1.19.0
<configuration xmlns:xsi="http://www.w3.org/2001/XMLSchema-instance" xsi:noNamespaceSchemaLocation="http://sumo.dlr.de/xsd/sumoConfiguration.xsd">

    <input>
        <net-file value="test5.net.xml"/>
        <route-files value="route_gen.rou.xml"/>
    </input>

    <output>
        <tripinfo-output value="tripinfo_epi136.xml"/>
    </output>

    <report>
        <no-warnings value="true"/>
    </report>

    <traci_server>
        <remote-port value="39293"/>
    </traci_server>

</configuration>
-->

<tripinfos xmlns:xsi="http://www.w3.org/2001/XMLSchema-instance" xsi:noNamespaceSchemaLocation="http://sumo.dlr.de/xsd/tripinfo_file.xsd">
    <tripinfo id="NS_5" depart="5.00" departLane="2i_0" departPos="4.10" departSpeed="0.00" departDelay="0.00" arrival="86.00" arrivalLane="1o_0" arrivalPos="492.80" arrivalSpeed="11.59" duration="81.00" routeLength="995.90" waitingTime="1.00" waitingCount="1" stopTime="0.00" timeLoss="13.60" rerouteNo="0" devices="tripinfo_NS_5" vType="car" speedFactor="1.06" vaporized=""/>
    <tripinfo id="EW_10" depart="10.00" departLane="4i_0" departPos="4.10" departSpeed="0.00" departDelay="0.00" arrival="87.00" arrivalLane="1o_0" arrivalPos="492.80" arrivalSpeed="10.75" duration="77.00" routeLength="990.53" waitingTime="0.00" waitingCount="0" stopTime="0.00" timeLoss="12.07" rerouteNo="0" devices="tripinfo_EW_10" vType="car" speedFactor="1.08" vaporized=""/>
    <tripinfo id="WE_12" depart="12.00" departLane="1i_0" departPos="4.10" departSpeed="0.00" departDelay="0.00" arrival="90.00" arrivalLane="4o_0" arrivalPos="492.80" arrivalSpeed="10.90" duration="78.00" routeLength="995.70" waitingTime="0.00" waitingCount="0" stopTime="0.00" timeLoss="10.23" rerouteNo="0" devices="tripinfo_WE_12" vType="car" speedFactor="1.05" vaporized=""/>
    <tripinfo id="SN_9" depart="9.00" departLane="3i_0" departPos="4.10" departSpeed="0.00" departDelay="0.00" arrival="94.00" arrivalLane="1o_0" arrivalPos="492.80" arrivalSpeed="10.13" duration="85.00" routeLength="995.70" waitingTime="0.00" waitingCount="0" stopTime="0.00" timeLoss="14.57" rerouteNo="0" devices="tripinfo_SN_9" vType="car" speedFactor="1.01" vaporized=""/>
    <tripinfo id="SN_10" depart="11.00" departLane="3i_0" departPos="4.10" departSpeed="0.00" departDelay="1.00" arrival="95.00" arrivalLane="1o_0" arrivalPos="492.80" arrivalSpeed="11.11" duration="84.00" routeLength="995.70" waitingTime="0.00" waitingCount="0" stopTime="0.00" timeLoss="15.50" rerouteNo="0" devices="tripinfo_SN_10" vType="car" speedFactor="1.03" vaporized=""/>
    <tripinfo id="NS_7" depart="8.00" departLane="2i_0" departPos="4.10" departSpeed="0.00" departDelay="1.00" arrival="103.00" arrivalLane="1o_0" arrivalPos="492.80" arrivalSpeed="9.55" duration="95.00" routeLength="995.90" waitingTime="3.00" waitingCount="3" stopTime="0.00" timeLoss="18.98" rerouteNo="0" devices="tripinfo_NS_7" vType="car" speedFactor="0.94" vaporized=""/>
    <tripinfo id="SN_14" depart="14.00" departLane="3i_0" departPos="4.10" departSpeed="0.00" departDelay="0.00" arrival="104.00" arrivalLane="2o_0" arrivalPos="492.80" arrivalSpeed="9.24" duration="90.00" routeLength="990.53" waitingTime="0.00" waitingCount="0" stopTime="0.00" timeLoss="10.52" rerouteNo="0" devices="tripinfo_SN_14" vType="car" speedFactor="0.89" vaporized=""/>
    <tripinfo id="SN_18" depart="18.00" departLane="3i_0" departPos="4.10" departSpeed="0.00" departDelay="0.00" arrival="106.00" arrivalLane="2o_0" arrivalPos="492.80" arrivalSpeed="9.84" duration="88.00" routeLength="990.53" waitingTime="0.00" waitingCount="0" stopTime="0.00" timeLoss="12.63" rerouteNo="0" devices="tripinfo_SN_18" vType="car" speedFactor="0.94" vaporized=""/>
    <tripinfo id="SN_32" depart="32.00" departLane="3i_0" departPos="4.10" departSpeed="0.00" departDelay="0.00" arrival="108.00" arrivalLane="2o_0" arrivalPos="492.80" arrivalSpeed="12.31" duration="76.00" routeLength="990.53" waitingTime="0.00" waitingCount="0" stopTime="0.00" timeLoss="12.47" rerouteNo="0" devices="tripinfo_SN_32" vType="car" speedFactor="1.12" vaporized=""/>
    <tripinfo id="NS_22" depart="22.00" departLane="2i_0" departPos="4.10" departSpeed="0.00" departDelay="0.00" arrival="111.00" arrivalLane="1o_0" arrivalPos="492.80" arrivalSpeed="10.97" duration="89.00" routeLength="995.90" waitingTime="2.00" waitingCount="2" stopTime="0.00" timeLoss="23.51" rerouteNo="0" devices="tripinfo_NS_22" vType="car" speedFactor="1.09" vaporized=""/>
    <tripinfo id="NS_11" depart="11.00" departLane="2i_0" departPos="4.10" departSpeed="0.00" departDelay="0.00" arrival="116.00" arrivalLane="3o_0" arrivalPos="492.80" arrivalSpeed="8.11" duration="105.00" routeLength="995.70" waitingTime="2.00" waitingCount="2" stopTime="0.00" timeLoss="19.78" rerouteNo="0" devices="tripinfo_NS_11" vType="car" speedFactor="0.83" vaporized=""/>
    <tripinfo id="EW_25" depart="25.00" departLane="4i_0" departPos="4.10" departSpeed="0.00" departDelay="0.00" arrival="116.00" arrivalLane="1o_0" arrivalPos="492.80" arrivalSpeed="10.79" duration="91.00" routeLength="990.53" waitingTime="3.00" waitingCount="2" stopTime="0.00" timeLoss="22.21" rerouteNo="0" devices="tripinfo_EW_25" vType="car" speedFactor="1.03" vaporized=""/>
    <tripinfo id="EW_22" depart="22.00" departLane="4i_0" departPos="4.10" departSpeed="0.00" departDelay="0.00" arrival="120.00" arrivalLane="2o_0" arrivalPos="492.80" arrivalSpeed="8.77" duration="98.00" routeLength="995.70" waitingTime="3.00" waitingCount="1" stopTime="0.00" timeLoss="15.39" rerouteNo="0" devices="tripinfo_EW_22" vType="car" speedFactor="0.86" vaporized=""/>
    <tripinfo id="NS_37" depart="37.00" departLane="2i_0" departPos="4.10" departSpeed="0.00" departDelay="0.00" arrival="122.00" arrivalLane="4o_0" arrivalPos="492.80" arrivalSpeed="9.98" duration="85.00" routeLength="990.53" waitingTime="0.00" waitingCount="0" stopTime="0.00" timeLoss="9.24" rerouteNo="0" devices="tripinfo_NS_37" vType="car" speedFactor="0.94" vaporized=""/>
    <tripinfo id="SN_39" depart="39.00" departLane="3i_0" departPos="4.10" departSpeed="0.00" departDelay="0.00" arrival="122.00" arrivalLane="2o_0" arrivalPos="492.80" arrivalSpeed="12.02" duration="83.00" routeLength="990.53" waitingTime="0.00" waitingCount="0" stopTime="0.00" timeLoss="21.65" rerouteNo="0" devices="tripinfo_SN_39" vType="car" speedFactor="1.16" vaporized=""/>
    <tripinfo id="EW_27" depart="27.00" departLane="4i_0" departPos="4.10" departSpeed="0.00" departDelay="0.00" arrival="124.00" arrivalLane="2o_0" arrivalPos="492.80" arrivalSpeed="10.43" duration="97.00" routeLength="995.70" waitingTime="4.00" waitingCount="2" stopTime="0.00" timeLoss="29.02" rerouteNo="0" devices="tripinfo_EW_27" vType="car" speedFactor="1.05" vaporized=""/>
    <tripinfo id="WE_33" depart="33.00" departLane="1i_0" departPos="4.10" departSpeed="0.00" departDelay="0.00" arrival="124.00" arrivalLane="4o_0" arrivalPos="492.80" arrivalSpeed="10.18" duration="91.00" routeLength="995.70" waitingTime="2.00" waitingCount="1" stopTime="0.00" timeLoss="19.01" rerouteNo="0" devices="tripinfo_WE_33" vType="car" speedFactor="0.99" vaporized=""/>
    <tripinfo id="SN_41" depart="42.00" departLane="3i_0" departPos="4.10" departSpeed="0.00" departDelay="1.00" arrival="125.00" arrivalLane="4o_0" arrivalPos="492.80" arrivalSpeed="11.03" duration="83.00" routeLength="995.90" waitingTime="0.00" waitingCount="0" stopTime="0.00" timeLoss="13.37" rerouteNo="0" devices="tripinfo_SN_41" vType="car" speedFactor="1.02" vaporized=""/>
    <tripinfo id="WE_34" depart="36.00" departLane="1i_0" departPos="4.10" departSpeed="0.00" departDelay="2.00" arrival="127.00" arrivalLane="3o_0" arrivalPos="492.80" arrivalSpeed="10.01" duration="91.00" routeLength="990.53" waitingTime="0.00" waitingCount="0" stopTime="0.00" timeLoss="15.03" rerouteNo="0" devices="tripinfo_WE_34" vType="car" speedFactor="0.93" vaporized=""/>
    <tripinfo id="NS_42" depart="42.00" departLane="2i_0" departPos="4.10" departSpeed="0.00" departDelay="0.00" arrival="129.00" arrivalLane="3o_0" arrivalPos="492.80" arrivalSpeed="10.71" duration="87.00" routeLength="995.70" waitingTime="2.00" waitingCount="1" stopTime="0.00" timeLoss="16.73" rerouteNo="0" devices="tripinfo_NS_42" vType="car" speedFactor="1.01" vaporized=""/>
    <tripinfo id="EW_37" depart="38.00" departLane="4i_0" departPos="4.10" departSpeed="0.00" departDelay="1.00" arrival="132.00" arrivalLane="1o_0" arrivalPos="492.80" arrivalSpeed="10.29" duration="94.00" routeLength="990.53" waitingTime="1.00" waitingCount="1" stopTime="0.00" timeLoss="18.93" rerouteNo="0" devices="tripinfo_EW_37" vType="car" speedFactor="0.94" vaporized=""/>
    <tripinfo id="EW_35" depart="35.00" departLane="4i_0" departPos="4.10" departSpeed="0.00" departDelay="0.00" arrival="134.00" arrivalLane="2o_0" arrivalPos="492.80" arrivalSpeed="9.16" duration="99.00" routeLength="995.70" waitingTime="3.00" waitingCount="1" stopTime="0.00" timeLoss="18.24" rerouteNo="0" devices="tripinfo_EW_35" vType="car" speedFactor="0.88" vaporized=""/>
    <tripinfo id="WE_45" depart="45.00" departLane="1i_0" departPos="4.10" departSpeed="0.00" departDelay="0.00" arrival="138.00" arrivalLane="3o_0" arrivalPos="492.80" arrivalSpeed="9.70" duration="93.00" routeLength="990.53" waitingTime="8.00" waitingCount="1" stopTime="0.00" timeLoss="20.43" rerouteNo="0" devices="tripinfo_WE_45" vType="car" speedFactor="0.97" vaporized=""/>
    <tripinfo id="EW_47" depart="47.00" departLane="4i_0" departPos="4.10" departSpeed="0.00" departDelay="0.00" arrival="139.00" arrivalLane="2o_0" arrivalPos="492.80" arrivalSpeed="9.16" duration="92.00" routeLength="995.70" waitingTime="0.00" waitingCount="0" stopTime="0.00" timeLoss="11.84" rerouteNo="0" devices="tripinfo_EW_47" vType="car" speedFactor="0.89" vaporized=""/>
    <tripinfo id="SN_55" depart="55.00" departLane="3i_0" departPos="4.10" departSpeed="0.00" departDelay="0.00" arrival="139.00" arrivalLane="4o_0" arrivalPos="492.80" arrivalSpeed="10.00" duration="84.00" routeLength="995.90" waitingTime="0.00" waitingCount="0" stopTime="0.00" timeLoss="8.87" rerouteNo="0" devices="tripinfo_SN_55" vType="car" speedFactor="0.95" vaporized=""/>
    <tripinfo id="EW_55" depart="57.00" departLane="4i_0" departPos="4.10" departSpeed="0.00" departDelay="2.00" arrival="144.00" arrivalLane="1o_0" arrivalPos="492.80" arrivalSpeed="9.80" duration="87.00" routeLength="990.53" waitingTime="0.00" waitingCount="0" stopTime="0.00" timeLoss="10.26" rerouteNo="0" devices="tripinfo_EW_55" vType="car" speedFactor="0.92" vaporized=""/>
    <tripinfo id="SN_73" depart="73.00" departLane="3i_0" departPos="4.10" departSpeed="0.00" departDelay="0.00" arrival="148.00" arrivalLane="1o_0" arrivalPos="492.80" arrivalSpeed="12.32" duration="75.00" routeLength="995.70" waitingTime="0.00" waitingCount="0" stopTime="0.00" timeLoss="14.48" rerouteNo="0" devices="tripinfo_SN_73" vType="car" speedFactor="1.17" vaporized=""/>
    <tripinfo id="EW_54" depart="54.00" departLane="4i_0" departPos="4.10" departSpeed="0.00" departDelay="0.00" arrival="150.00" arrivalLane="2o_0" arrivalPos="492.80" arrivalSpeed="8.36" duration="96.00" routeLength="995.70" waitingTime="0.00" waitingCount="0" stopTime="0.00" timeLoss="9.92" rerouteNo="0" devices="tripinfo_EW_54" vType="car" speedFactor="0.83" vaporized=""/>
    <tripinfo id="EW_57" depart="59.00" departLane="4i_0" departPos="4.10" departSpeed="0.00" departDelay="2.00" arrival="152.00" arrivalLane="2o_0" arrivalPos="492.80" arrivalSpeed="11.23" duration="93.00" routeLength="995.70" waitingTime="0.00" waitingCount="0" stopTime="0.00" timeLoss="29.86" rerouteNo="0" devices="tripinfo_EW_57" vType="car" speedFactor="1.13" vaporized=""/>
    <tripinfo id="NS_69" depart="69.00" departLane="2i_0" departPos="10.10" departSpeed="0.00" departDelay="0.00" arrival="159.00" arrivalLane="3o_0" arrivalPos="492.80" arrivalSpeed="11.82" duration="90.00" routeLength="989.70" waitingTime="2.00" waitingCount="2" stopTime="0.00" timeLoss="23.49" rerouteNo="0" devices="tripinfo_NS_69" vType="truck" speedFactor="1.08" vaporized=""/>
    <tripinfo id="WE_55" depart="55.00" departLane="1i_0" departPos="4.10" departSpeed="0.00" departDelay="0.00" arrival="160.00" arrivalLane="2o_0" arrivalPos="492.80" arrivalSpeed="8.43" duration="105.00" routeLength="995.90" waitingTime="9.00" waitingCount="1" stopTime="0.00" timeLoss="23.55" rerouteNo="0" devices="tripinfo_WE_55" vType="car" speedFactor="0.87" vaporized=""/>
    <tripinfo id="WE_59" depart="59.00" departLane="1i_0" departPos="4.10" departSpeed="0.00" departDelay="0.00" arrival="163.00" arrivalLane="2o_0" arrivalPos="492.80" arrivalSpeed="10.32" duration="104.00" routeLength="995.90" waitingTime="9.00" waitingCount="2" stopTime="0.00" timeLoss="27.59" rerouteNo="0" devices="tripinfo_WE_59" vType="car" speedFactor="0.93" vaporized=""/>
    <tripinfo id="SN_96" depart="96.00" departLane="3i_0" departPos="4.10" departSpeed="0.00" departDelay="0.00" arrival="165.00" arrivalLane="2o_0" arrivalPos="492.80" arrivalSpeed="13.01" duration="69.00" routeLength="990.53" waitingTime="0.00" waitingCount="0" stopTime="0.00" timeLoss="8.72" rerouteNo="0" devices="tripinfo_SN_96" vType="car" speedFactor="1.18" vaporized=""/>
    <tripinfo id="WE_69" depart="69.00" departLane="1i_0" departPos="4.10" departSpeed="0.00" departDelay="0.00" arrival="166.00" arrivalLane="4o_0" arrivalPos="492.80" arrivalSpeed="12.98" duration="97.00" routeLength="995.70" waitingTime="11.00" waitingCount="4" stopTime="0.00" timeLoss="36.27" rerouteNo="0" devices="tripinfo_WE_69" vType="car" speedFactor="1.18" vaporized=""/>
    <tripinfo id="EW_79" depart="79.00" departLane="4i_0" departPos="4.10" departSpeed="0.00" departDelay="0.00" arrival="166.00" arrivalLane="3o_0" arrivalPos="492.80" arrivalSpeed="10.15" duration="87.00" routeLength="995.90" waitingTime="3.00" waitingCount="1" stopTime="0.00" timeLoss="15.89" rerouteNo="0" devices="tripinfo_EW_79" vType="car" speedFactor="0.99" vaporized=""/>
    <tripinfo id="NS_70" depart="73.00" departLane="2i_0" departPos="4.10" departSpeed="0.00" departDelay="3.00" arrival="169.00" arrivalLane="1o_0" arrivalPos="492.80" arrivalSpeed="10.72" duration="96.00" routeLength="995.90" waitingTime="1.00" waitingCount="1" stopTime="0.00" timeLoss="25.02" rerouteNo="0" devices="tripinfo_NS_70" vType="car" speedFactor="1.01" vaporized=""/>
    <tripinfo id="EW_84" depart="84.00" departLane="4i_0" departPos="4.10" departSpeed="0.00" departDelay="0.00" arrival="172.00" arrivalLane="1o_0" arrivalPos="492.80" arrivalSpeed="11.14" duration="88.00" routeLength="990.53" waitingTime="2.00" waitingCount="1" stopTime="0.00" timeLoss="18.69" rerouteNo="0" devices="tripinfo_EW_84" vType="car" speedFactor="1.02" vaporized=""/>
    <tripinfo id="NS_86" depart="86.00" departLane="2i_0" departPos="4.10" departSpeed="0.00" departDelay="0.00" arrival="178.00" arrivalLane="4o_0" arrivalPos="492.80" arrivalSpeed="10.51" duration="92.00" routeLength="990.53" waitingTime="2.00" waitingCount="2" stopTime="0.00" timeLoss="19.28" rerouteNo="0" devices="tripinfo_NS_86" vType="car" speedFactor="0.97" vaporized=""/>
    <tripinfo id="EW_102" depart="102.00" departLane="4i_0" departPos="4.10" departSpeed="0.00" departDelay="0.00" arrival="181.00" arrivalLane="2o_0" arrivalPos="492.80" arrivalSpeed="10.81" duration="79.00" routeLength="995.70" waitingTime="0.00" waitingCount="0" stopTime="0.00" timeLoss="9.99" rerouteNo="0" devices="tripinfo_EW_102" vType="car" speedFactor="1.03" vaporized=""/>
    <tripinfo id="WE_100" depart="100.00" departLane="1i_0" departPos="4.10" departSpeed="0.00" departDelay="0.00" arrival="187.00" arrivalLane="4o_0" arrivalPos="492.80" arrivalSpeed="10.96" duration="87.00" routeLength="995.70" waitingTime="10.00" waitingCount="1" stopTime="0.00" timeLoss="22.49" rerouteNo="0" devices="tripinfo_WE_100" vType="car" speedFactor="1.10" vaporized=""/>
    <tripinfo id="EW_113" depart="113.00" departLane="4i_0" departPos="4.10" departSpeed="0.00" departDelay="0.00" arrival="190.00" arrivalLane="2o_0" arrivalPos="492.80" arrivalSpeed="11.52" duration="77.00" routeLength="995.70" waitingTime="0.00" waitingCount="0" stopTime="0.00" timeLoss="12.29" rerouteNo="0" devices="tripinfo_EW_113" vType="car" speedFactor="1.09" vaporized=""/>
    <tripinfo id="EW_118" depart="118.00" departLane="4i_0" departPos="4.10" departSpeed="0.00" departDelay="0.00" arrival="197.00" arrivalLane="1o_0" arrivalPos="492.80" arrivalSpeed="9.97" duration="79.00" routeLength="990.53" waitingTime="0.00" waitingCount="0" stopTime="0.00" timeLoss="8.30" rerouteNo="0" devices="tripinfo_EW_118" vType="car" speedFactor="1.00" vaporized=""/>
    <tripinfo id="NS_116" depart="116.00" departLane="2i_0" departPos="4.10" departSpeed="0.00" departDelay="0.00" arrival="198.00" arrivalLane="4o_0" arrivalPos="492.80" arrivalSpeed="10.87" duration="82.00" routeLength="990.53" waitingTime="1.00" waitingCount="1" stopTime="0.00" timeLoss="14.39" rerouteNo="0" devices="tripinfo_NS_116" vType="car" speedFactor="1.04" vaporized=""/>
    <tripinfo id="SN_116" depart="116.00" departLane="3i_0" departPos="4.10" departSpeed="0.00" departDelay="0.00" arrival="199.00" arrivalLane="1o_0" arrivalPos="492.80" arrivalSpeed="11.14" duration="83.00" routeLength="995.70" waitingTime="0.00" waitingCount="0" stopTime="0.00" timeLoss="14.83" rerouteNo="0" devices="tripinfo_SN_116" vType="car" speedFactor="1.04" vaporized=""/>
    <tripinfo id="NS_117" depart="120.00" departLane="2i_0" departPos="4.10" departSpeed="0.00" departDelay="3.00" arrival="201.00" arrivalLane="3o_0" arrivalPos="492.80" arrivalSpeed="11.00" duration="81.00" routeLength="995.70" waitingTime="0.00" waitingCount="0" stopTime="0.00" timeLoss="16.20" rerouteNo="0" devices="tripinfo_NS_117" vType="car" speedFactor="1.09" vaporized=""/>
    <tripinfo id="SN_136" depart="138.00" departLane="3i_0" departPos="4.10" departSpeed="0.00" departDelay="2.00" arrival="207.00" arrivalLane="4o_0" arrivalPos="492.80" arrivalSpeed="11.93" duration="69.00" routeLength="995.90" waitingTime="0.00" waitingCount="0" stopTime="0.00" timeLoss="8.26" rerouteNo="0" devices="tripinfo_SN_136" vType="car" speedFactor="1.17" vaporized=""/>
    <tripinfo id="WE_101" depart="103.00" departLane="1i_0" departPos="4.10" departSpeed="0.00" departDelay="2.00" arrival="208.00" arrivalLane="2o_0" arrivalPos="492.80" arrivalSpeed="9.18" duration="105.00" routeLength="995.90" waitingTime="8.00" waitingCount="2" stopTime="0.00" timeLoss="26.29" rerouteNo="0" devices="tripinfo_WE_101" vType="car" speedFactor="0.90" vaporized=""/>
    <tripinfo id="EW_127" depart="127.00" departLane="4i_0" departPos="4.10" departSpeed="0.00" departDelay="0.00" arrival="216.00" arrivalLane="3o_0" arrivalPos="492.80" arrivalSpeed="9.13" duration="89.00" routeLength="995.90" waitingTime="0.00" waitingCount="0" stopTime="0.00" timeLoss="9.87" rerouteNo="0" devices="tripinfo_EW_127" vType="car" speedFactor="0.90" vaporized=""/>
    <tripinfo id="WE_111" depart="111.00" departLane="1i_0" departPos="4.10" departSpeed="0.00" departDelay="0.00" arrival="218.00" arrivalLane="3o_0" arrivalPos="492.80" arrivalSpeed="9.42" duration="107.00" routeLength="990.53" waitingTime="10.00" waitingCount="3" stopTime="0.00" timeLoss="32.90" rerouteNo="0" devices="tripinfo_WE_111" vType="car" speedFactor="0.96" vaporized=""/>
    <tripinfo id="EW_131" depart="131.00" departLane="4i_0" departPos="4.10" departSpeed="0.00" departDelay="0.00" arrival="223.00" arrivalLane="3o_0" arrivalPos="492.80" arrivalSpeed="9.38" duration="92.00" routeLength="995.90" waitingTime="0.00" waitingCount="0" stopTime="0.00" timeLoss="10.55" rerouteNo="0" devices="tripinfo_EW_131" vType="car" speedFactor="0.88" vaporized=""/>
    <tripinfo id="EW_135" depart="135.00" departLane="4i_0" departPos="4.10" departSpeed="0.00" departDelay="0.00" arrival="226.00" arrivalLane="1o_0" arrivalPos="492.80" arrivalSpeed="8.22" duration="91.00" routeLength="990.53" waitingTime="0.00" waitingCount="0" stopTime="0.00" timeLoss="8.61" rerouteNo="0" devices="tripinfo_EW_135" vType="car" speedFactor="0.85" vaporized=""/>
    <tripinfo id="NS_140" depart="140.00" departLane="2i_0" departPos="4.10" departSpeed="0.00" departDelay="0.00" arrival="228.00" arrivalLane="1o_0" arrivalPos="492.80" arrivalSpeed="10.22" duration="88.00" routeLength="995.90" waitingTime="1.00" waitingCount="1" stopTime="0.00" timeLoss="18.03" rerouteNo="0" devices="tripinfo_NS_140" vType="car" speedFactor="1.02" vaporized=""/>
    <tripinfo id="NS_141" depart="144.00" departLane="2i_0" departPos="10.10" departSpeed="0.00" departDelay="3.00" arrival="230.00" arrivalLane="3o_0" arrivalPos="492.80" arrivalSpeed="11.49" duration="86.00" routeLength="989.70" waitingTime="0.00" waitingCount="0" stopTime="0.00" timeLoss="18.52" rerouteNo="0" devices="tripinfo_NS_141" vType="truck" speedFactor="1.05" vaporized=""/>
    <tripinfo id="WE_133" depart="133.00" departLane="1i_0" departPos="4.10" departSpeed="0.00" departDelay="0.00" arrival="234.00" arrivalLane="2o_0" arrivalPos="492.80" arrivalSpeed="8.37" duration="101.00" routeLength="995.90" waitingTime="3.00" waitingCount="1" stopTime="0.00" timeLoss="17.50" rerouteNo="0" devices="tripinfo_WE_133" vType="car" speedFactor="0.85" vaporized=""/>
    <tripinfo id="WE_142" depart="142.00" departLane="1i_0" departPos="4.10" departSpeed="0.00" departDelay="0.00" arrival="236.00" arrivalLane="2o_0" arrivalPos="492.80" arrivalSpeed="11.14" duration="94.00" routeLength="995.90" waitingTime="3.00" waitingCount="2" stopTime="0.00" timeLoss="22.71" rerouteNo="0" devices="tripinfo_WE_142" vType="car" speedFactor="1.00" vaporized=""/>
    <tripinfo id="NS_150" depart="150.00" departLane="2i_0" departPos="4.10" departSpeed="0.00" departDelay="0.00" arrival="239.00" arrivalLane="1o_0" arrivalPos="492.80" arrivalSpeed="10.99" duration="89.00" routeLength="995.90" waitingTime="1.00" waitingCount="1" stopTime="0.00" timeLoss="17.81" rerouteNo="0" devices="tripinfo_NS_150" vType="car" speedFactor="1.00" vaporized=""/>
    <tripinfo id="WE_156" depart="156.00" departLane="1i_0" departPos="4.10" departSpeed="0.00" departDelay="0.00" arrival="239.00" arrivalLane="2o_0" arrivalPos="492.80" arrivalSpeed="10.17" duration="83.00" routeLength="995.90" waitingTime="0.00" waitingCount="0" stopTime="0.00" timeLoss="9.46" rerouteNo="0" devices="tripinfo_WE_156" vType="car" speedFactor="0.97" vaporized=""/>
    <tripinfo id="SN_152" depart="152.00" departLane="3i_0" departPos="10.10" departSpeed="0.00" departDelay="0.00" arrival="241.00" arrivalLane="2o_0" arrivalPos="492.80" arrivalSpeed="10.71" duration="89.00" routeLength="984.53" waitingTime="2.00" waitingCount="1" stopTime="0.00" timeLoss="19.70" rerouteNo="0" devices="tripinfo_SN_152" vType="truck" speedFactor="1.01" vaporized=""/>
    <tripinfo id="EW_165" depart="166.00" departLane="4i_0" departPos="4.10" departSpeed="0.00" departDelay="1.00" arrival="241.00" arrivalLane="1o_0" arrivalPos="492.80" arrivalSpeed="11.27" duration="75.00" routeLength="990.53" waitingTime="0.00" waitingCount="0" stopTime="0.00" timeLoss="11.53" rerouteNo="0" devices="tripinfo_EW_165" vType="car" speedFactor="1.12" vaporized=""/>
    <tripinfo id="NS_152" depart="156.00" departLane="2i_0" departPos="4.10" departSpeed="0.00" departDelay="4.00" arrival="242.00" arrivalLane="1o_0" arrivalPos="492.80" arrivalSpeed="11.95" duration="86.00" routeLength="995.90" waitingTime="0.00" waitingCount="0" stopTime="0.00" timeLoss="24.23" rerouteNo="0" devices="tripinfo_NS_152" vType="car" speedFactor="1.14" vaporized=""/>
    <tripinfo id="SN_168" depart="168.00" departLane="3i_0" departPos="4.10" departSpeed="0.00" departDelay="0.00" arrival="249.00" arrivalLane="4o_0" arrivalPos="492.80" arrivalSpeed="10.25" duration="81.00" routeLength="995.90" waitingTime="0.00" waitingCount="0" stopTime="0.00" timeLoss="8.86" rerouteNo="0" devices="tripinfo_SN_168" vType="car" speedFactor="0.99" vaporized=""/>
    <tripinfo id="NS_151" depart="153.00" departLane="2i_0" departPos="4.10" departSpeed="0.00" departDelay="2.00" arrival="250.00" arrivalLane="3o_0" arrivalPos="492.80" arrivalSpeed="9.34" duration="97.00" routeLength="995.70" waitingTime="1.00" waitingCount="1" stopTime="0.00" timeLoss="17.94" rerouteNo="0" devices="tripinfo_NS_151" vType="car" speedFactor="0.90" vaporized=""/>
    <tripinfo id="NS_163" depart="163.00" departLane="2i_0" departPos="4.10" departSpeed="0.00" departDelay="0.00" arrival="251.00" arrivalLane="3o_0" arrivalPos="492.80" arrivalSpeed="11.92" duration="88.00" routeLength="995.70" waitingTime="1.00" waitingCount="1" stopTime="0.00" timeLoss="22.83" rerouteNo="0" devices="tripinfo_NS_163" vType="car" speedFactor="1.08" vaporized=""/>
    <tripinfo id="WE_167" depart="169.00" departLane="1i_0" departPos="4.10" departSpeed="0.00" departDelay="2.00" arrival="254.00" arrivalLane="4o_0" arrivalPos="492.80" arrivalSpeed="10.00" duration="85.00" routeLength="995.70" waitingTime="0.00" waitingCount="0" stopTime="0.00" timeLoss="14.81" rerouteNo="0" devices="tripinfo_WE_167" vType="car" speedFactor="1.02" vaporized=""/>
    <tripinfo id="EW_175" depart="175.00" departLane="4i_0" departPos="4.10" departSpeed="0.00" departDelay="0.00" arrival="264.00" arrivalLane="3o_0" arrivalPos="492.80" arrivalSpeed="9.27" duration="89.00" routeLength="995.90" waitingTime="0.00" waitingCount="0" stopTime="0.00" timeLoss="8.71" rerouteNo="0" devices="tripinfo_EW_175" vType="car" speedFactor="0.88" vaporized=""/>
    <tripinfo id="WE_177" depart="177.00" departLane="1i_0" departPos="4.10" departSpeed="0.00" departDelay="0.00" arrival="266.00" arrivalLane="3o_0" arrivalPos="492.80" arrivalSpeed="10.12" duration="89.00" routeLength="990.53" waitingTime="0.00" waitingCount="0" stopTime="0.00" timeLoss="11.94" rerouteNo="0" devices="tripinfo_WE_177" vType="car" speedFactor="0.91" vaporized=""/>
    <tripinfo id="SN_175" depart="175.00" departLane="3i_0" departPos="4.10" departSpeed="0.00" departDelay="0.00" arrival="267.00" arrivalLane="1o_0" arrivalPos="492.80" arrivalSpeed="9.24" duration="92.00" routeLength="995.70" waitingTime="2.00" waitingCount="1" stopTime="0.00" timeLoss="13.52" rerouteNo="0" devices="tripinfo_SN_175" vType="car" speedFactor="0.91" vaporized=""/>
    <tripinfo id="NS_174" depart="174.00" departLane="2i_0" departPos="4.10" departSpeed="0.00" departDelay="0.00" arrival="269.00" arrivalLane="1o_0" arrivalPos="492.80" arrivalSpeed="9.42" duration="95.00" routeLength="995.90" waitingTime="3.00" waitingCount="3" stopTime="0.00" timeLoss="18.95" rerouteNo="0" devices="tripinfo_NS_174" vType="car" speedFactor="0.94" vaporized=""/>
    <tripinfo id="WE_186" depart="186.00" departLane="1i_0" departPos="4.10" departSpeed="0.00" departDelay="0.00" arrival="269.00" arrivalLane="3o_0" arrivalPos="492.80" arrivalSpeed="9.59" duration="83.00" routeLength="990.53" waitingTime="0.00" waitingCount="0" stopTime="0.00" timeLoss="9.89" rerouteNo="0" devices="tripinfo_WE_186" vType="car" speedFactor="0.97" vaporized=""/>
    <tripinfo id="NS_179" depart="179.00" departLane="2i_0" departPos="4.10" departSpeed="0.00" departDelay="0.00" arrival="271.00" arrivalLane="3o_0" arrivalPos="492.80" arrivalSpeed="11.27" duration="92.00" routeLength="995.70" waitingTime="2.00" waitingCount="2" stopTime="0.00" timeLoss="23.19" rerouteNo="0" devices="tripinfo_NS_179" vType="car" speedFactor="1.04" vaporized=""/>
    <tripinfo id="NS_180" depart="182.00" departLane="2i_0" departPos="4.10" departSpeed="0.00" departDelay="2.00" arrival="274.00" arrivalLane="3o_0" arrivalPos="492.80" arrivalSpeed="10.06" duration="92.00" routeLength="995.70" waitingTime="1.00" waitingCount="1" stopTime="0.00" timeLoss="22.17" rerouteNo="0" devices="tripinfo_NS_180" vType="car" speedFactor="1.02" vaporized=""/>
    <tripinfo id="WE_192" depart="192.00" departLane="1i_0" departPos="4.10" departSpeed="0.00" departDelay="0.00" arrival="276.00" arrivalLane="2o_0" arrivalPos="492.80" arrivalSpeed="9.74" duration="84.00" routeLength="995.90" waitingTime="0.00" waitingCount="0" stopTime="0.00" timeLoss="8.79" rerouteNo="0" devices="tripinfo_WE_192" vType="car" speedFactor="0.94" vaporized=""/>
    <tripinfo id="SN_197" depart="197.00" departLane="3i_0" departPos="4.10" departSpeed="0.00" departDelay="0.00" arrival="278.00" arrivalLane="2o_0" arrivalPos="492.80" arrivalSpeed="9.72" duration="81.00" routeLength="990.53" waitingTime="0.00" waitingCount="0" stopTime="0.00" timeLoss="9.51" rerouteNo="0" devices="tripinfo_SN_197" vType="car" speedFactor="0.98" vaporized=""/>
    <tripinfo id="NS_184" depart="185.00" departLane="2i_0" departPos="4.10" departSpeed="0.00" departDelay="1.00" arrival="281.00" arrivalLane="4o_0" arrivalPos="492.80" arrivalSpeed="11.29" duration="96.00" routeLength="990.53" waitingTime="1.00" waitingCount="1" stopTime="0.00" timeLoss="26.57" rerouteNo="0" devices="tripinfo_NS_184" vType="car" speedFactor="1.02" vaporized=""/>
    <tripinfo id="WE_196" depart="197.00" departLane="1i_0" departPos="4.10" departSpeed="0.00" departDelay="1.00" arrival="282.00" arrivalLane="4o_0" arrivalPos="492.80" arrivalSpeed="10.47" duration="85.00" routeLength="995.70" waitingTime="0.00" waitingCount="0" stopTime="0.00" timeLoss="18.16" rerouteNo="0" devices="tripinfo_WE_196" vType="car" speedFactor="1.06" vaporized=""/>
    <tripinfo id="WE_198" depart="200.00" departLane="1i_0" departPos="4.10" departSpeed="0.00" departDelay="2.00" arrival="286.00" arrivalLane="3o_0" arrivalPos="492.80" arrivalSpeed="10.50" duration="86.00" routeLength="990.53" waitingTime="1.00" waitingCount="1" stopTime="0.00" timeLoss="17.82" rerouteNo="0" devices="tripinfo_WE_198" vType="car" speedFactor="1.03" vaporized=""/>