<?xml version="1.0" encoding="UTF-8"?>

<!-- generated on 2024-05-04 21:18:43 by Eclipse SUMO sumo Version 1.19.0
<configuration xmlns:xsi="http://www.w3.org/2001/XMLSchema-instance" xsi:noNamespaceSchemaLocation="http://sumo.dlr.de/xsd/sumoConfiguration.xsd">

    <input>
        <net-file value="test5.net.xml"/>
        <route-files value="route_gen.rou.xml"/>
    </input>

    <output>
        <tripinfo-output value="tripinfo_epi994.xml"/>
    </output>

    <report>
        <no-warnings value="true"/>
    </report>

    <traci_server>
        <remote-port value="44715"/>
    </traci_server>

</configuration>
-->

<tripinfos xmlns:xsi="http://www.w3.org/2001/XMLSchema-instance" xsi:noNamespaceSchemaLocation="http://sumo.dlr.de/xsd/tripinfo_file.xsd">
    <tripinfo id="NS_4" depart="4.00" departLane="2i_0" departPos="4.10" departSpeed="0.00" departDelay="0.00" arrival="82.00" arrivalLane="4o_0" arrivalPos="492.80" arrivalSpeed="11.12" duration="78.00" routeLength="990.53" waitingTime="0.00" waitingCount="0" stopTime="0.00" timeLoss="7.87" rerouteNo="0" devices="tripinfo_NS_4" vType="car" speedFactor="1.01" vaporized=""/>
    <tripinfo id="WE_4" depart="4.00" departLane="1i_0" departPos="4.10" departSpeed="0.00" departDelay="0.00" arrival="88.00" arrivalLane="3o_0" arrivalPos="492.80" arrivalSpeed="10.30" duration="84.00" routeLength="990.53" waitingTime="0.00" waitingCount="0" stopTime="0.00" timeLoss="8.95" rerouteNo="0" devices="tripinfo_WE_4" vType="car" speedFactor="0.94" vaporized=""/>
    <tripinfo id="SN_7" depart="7.00" departLane="3i_0" departPos="4.10" departSpeed="0.00" departDelay="0.00" arrival="89.00" arrivalLane="1o_0" arrivalPos="492.80" arrivalSpeed="11.81" duration="82.00" routeLength="995.70" waitingTime="1.00" waitingCount="1" stopTime="0.00" timeLoss="16.26" rerouteNo="0" devices="tripinfo_SN_7" vType="car" speedFactor="1.08" vaporized=""/>
    <tripinfo id="NS_8" depart="8.00" departLane="2i_0" departPos="10.10" departSpeed="0.00" departDelay="0.00" arrival="89.00" arrivalLane="4o_0" arrivalPos="492.80" arrivalSpeed="11.03" duration="81.00" routeLength="984.53" waitingTime="0.00" waitingCount="0" stopTime="0.00" timeLoss="12.22" rerouteNo="0" devices="tripinfo_NS_8" vType="truck" speedFactor="1.02" vaporized=""/>
    <tripinfo id="EW_2" depart="2.00" departLane="4i_0" departPos="10.10" departSpeed="0.00" departDelay="0.00" arrival="91.00" arrivalLane="3o_0" arrivalPos="492.80" arrivalSpeed="11.17" duration="89.00" routeLength="989.90" waitingTime="0.00" waitingCount="0" stopTime="0.00" timeLoss="19.92" rerouteNo="0" devices="tripinfo_EW_2" vType="truck" speedFactor="1.03" vaporized=""/>
    <tripinfo id="WE_25" depart="25.00" departLane="1i_0" departPos="4.10" departSpeed="0.00" departDelay="0.00" arrival="99.00" arrivalLane="3o_0" arrivalPos="492.80" arrivalSpeed="11.42" duration="74.00" routeLength="990.53" waitingTime="0.00" waitingCount="0" stopTime="0.00" timeLoss="8.78" rerouteNo="0" devices="tripinfo_WE_25" vType="car" speedFactor="1.09" vaporized=""/>
    <tripinfo id="SN_19" depart="19.00" departLane="3i_0" departPos="4.10" departSpeed="0.00" departDelay="0.00" arrival="107.00" arrivalLane="4o_0" arrivalPos="492.80" arrivalSpeed="9.80" duration="88.00" routeLength="995.90" waitingTime="2.00" waitingCount="1" stopTime="0.00" timeLoss="12.52" rerouteNo="0" devices="tripinfo_SN_19" vType="car" speedFactor="0.94" vaporized=""/>
    <tripinfo id="NS_10" depart="12.00" departLane="2i_0" departPos="4.10" departSpeed="0.00" departDelay="2.00" arrival="109.00" arrivalLane="1o_0" arrivalPos="492.80" arrivalSpeed="8.54" duration="97.00" routeLength="995.90" waitingTime="0.00" waitingCount="0" stopTime="0.00" timeLoss="11.13" rerouteNo="0" devices="tripinfo_NS_10" vType="car" speedFactor="0.83" vaporized=""/>
    <tripinfo id="SN_26" depart="27.00" departLane="3i_0" departPos="4.10" departSpeed="0.00" departDelay="1.00" arrival="109.00" arrivalLane="2o_0" arrivalPos="492.80" arrivalSpeed="10.90" duration="82.00" routeLength="990.53" waitingTime="0.00" waitingCount="0" stopTime="0.00" timeLoss="13.17" rerouteNo="0" devices="tripinfo_SN_26" vType="car" speedFactor="1.03" vaporized=""/>
    <tripinfo id="NS_13" depart="14.00" departLane="2i_0" departPos="4.10" departSpeed="0.00" departDelay="1.00" arrival="110.00" arrivalLane="1o_0" arrivalPos="492.80" arrivalSpeed="9.99" duration="96.00" routeLength="995.90" waitingTime="1.00" waitingCount="1" stopTime="0.00" timeLoss="28.27" rerouteNo="0" devices="tripinfo_NS_13" vType="car" speedFactor="1.05" vaporized=""/>
    <tripinfo id="WE_32" depart="32.00" departLane="1i_0" departPos="4.10" departSpeed="0.00" departDelay="0.00" arrival="113.00" arrivalLane="2o_0" arrivalPos="492.80" arrivalSpeed="10.47" duration="81.00" routeLength="995.90" waitingTime="0.00" waitingCount="0" stopTime="0.00" timeLoss="9.18" rerouteNo="0" devices="tripinfo_WE_32" vType="car" speedFactor="0.99" vaporized=""/>
    <tripinfo id="NS_14" depart="18.00" departLane="2i_0" departPos="4.10" departSpeed="0.00" departDelay="4.00" arrival="114.00" arrivalLane="1o_0" arrivalPos="492.80" arrivalSpeed="9.50" duration="96.00" routeLength="995.90" waitingTime="0.00" waitingCount="0" stopTime="0.00" timeLoss="16.12" rerouteNo="0" devices="tripinfo_NS_14" vType="car" speedFactor="0.89" vaporized=""/>
    <tripinfo id="SN_29" depart="29.00" departLane="3i_0" departPos="4.10" departSpeed="0.00" departDelay="0.00" arrival="115.00" arrivalLane="2o_0" arrivalPos="492.80" arrivalSpeed="10.61" duration="86.00" routeLength="990.53" waitingTime="1.00" waitingCount="1" stopTime="0.00" timeLoss="18.18" rerouteNo="0" devices="tripinfo_SN_29" vType="car" speedFactor="1.05" vaporized=""/>
    <tripinfo id="EW_30" depart="30.00" departLane="4i_0" departPos="4.10" departSpeed="0.00" departDelay="0.00" arrival="116.00" arrivalLane="1o_0" arrivalPos="492.80" arrivalSpeed="11.92" duration="86.00" routeLength="990.53" waitingTime="0.00" waitingCount="0" stopTime="0.00" timeLoss="22.79" rerouteNo="0" devices="tripinfo_EW_30" vType="car" speedFactor="1.12" vaporized=""/>
    <tripinfo id="SN_24" depart="24.00" departLane="3i_0" departPos="4.10" departSpeed="0.00" departDelay="0.00" arrival="118.00" arrivalLane="4o_0" arrivalPos="492.80" arrivalSpeed="8.56" duration="94.00" routeLength="995.90" waitingTime="0.00" waitingCount="0" stopTime="0.00" timeLoss="11.29" rerouteNo="0" devices="tripinfo_SN_24" vType="car" speedFactor="0.86" vaporized=""/>
    <tripinfo id="NS_33" depart="33.00" departLane="2i_0" departPos="4.10" departSpeed="0.00" departDelay="0.00" arrival="120.00" arrivalLane="4o_0" arrivalPos="492.80" arrivalSpeed="9.05" duration="87.00" routeLength="990.53" waitingTime="0.00" waitingCount="0" stopTime="0.00" timeLoss="10.77" rerouteNo="0" devices="tripinfo_NS_33" vType="car" speedFactor="0.93" vaporized=""/>
    <tripinfo id="NS_36" depart="36.00" departLane="2i_0" departPos="4.10" departSpeed="0.00" departDelay="0.00" arrival="122.00" arrivalLane="4o_0" arrivalPos="492.80" arrivalSpeed="10.43" duration="86.00" routeLength="990.53" waitingTime="0.00" waitingCount="0" stopTime="0.00" timeLoss="10.70" rerouteNo="0" devices="tripinfo_NS_36" vType="car" speedFactor="0.94" vaporized=""/>
    <tripinfo id="SN_40" depart="40.00" departLane="3i_0" departPos="4.10" departSpeed="0.00" departDelay="0.00" arrival="126.00" arrivalLane="1o_0" arrivalPos="492.80" arrivalSpeed="9.78" duration="86.00" routeLength="995.70" waitingTime="0.00" waitingCount="0" stopTime="0.00" timeLoss="10.56" rerouteNo="0" devices="tripinfo_SN_40" vType="car" speedFactor="0.94" vaporized=""/>
    <tripinfo id="EW_34" depart="34.00" departLane="4i_0" departPos="4.10" departSpeed="0.00" departDelay="0.00" arrival="128.00" arrivalLane="3o_0" arrivalPos="492.80" arrivalSpeed="8.50" duration="94.00" routeLength="995.90" waitingTime="1.00" waitingCount="1" stopTime="0.00" timeLoss="13.29" rerouteNo="0" devices="tripinfo_EW_34" vType="car" speedFactor="0.88" vaporized=""/>
    <tripinfo id="EW_49" depart="49.00" departLane="4i_0" departPos="4.10" departSpeed="0.00" departDelay="0.00" arrival="130.00" arrivalLane="3o_0" arrivalPos="492.80" arrivalSpeed="12.81" duration="81.00" routeLength="995.90" waitingTime="0.00" waitingCount="0" stopTime="0.00" timeLoss="19.16" rerouteNo="0" devices="tripinfo_EW_49" vType="car" speedFactor="1.16" vaporized=""/>
    <tripinfo id="EW_55" depart="55.00" departLane="4i_0" departPos="4.10" departSpeed="0.00" departDelay="0.00" arrival="139.00" arrivalLane="1o_0" arrivalPos="492.80" arrivalSpeed="10.19" duration="84.00" routeLength="990.53" waitingTime="4.00" waitingCount="1" stopTime="0.00" timeLoss="14.21" rerouteNo="0" devices="tripinfo_EW_55" vType="car" speedFactor="1.02" vaporized=""/>
    <tripinfo id="SN_55" depart="55.00" departLane="3i_0" departPos="4.10" departSpeed="0.00" departDelay="0.00" arrival="140.00" arrivalLane="4o_0" arrivalPos="492.80" arrivalSpeed="10.16" duration="85.00" routeLength="995.90" waitingTime="3.00" waitingCount="1" stopTime="0.00" timeLoss="14.48" rerouteNo="0" devices="tripinfo_SN_55" vType="car" speedFactor="1.01" vaporized=""/>
    <tripinfo id="SN_57" depart="58.00" departLane="3i_0" departPos="4.10" departSpeed="0.00" departDelay="1.00" arrival="145.00" arrivalLane="1o_0" arrivalPos="492.80" arrivalSpeed="9.91" duration="87.00" routeLength="995.70" waitingTime="0.00" waitingCount="0" stopTime="0.00" timeLoss="14.39" rerouteNo="0" devices="tripinfo_SN_57" vType="car" speedFactor="0.97" vaporized=""/>
    <tripinfo id="WE_59" depart="59.00" departLane="1i_0" departPos="4.10" departSpeed="0.00" departDelay="0.00" arrival="148.00" arrivalLane="2o_0" arrivalPos="492.80" arrivalSpeed="9.27" duration="89.00" routeLength="995.90" waitingTime="0.00" waitingCount="0" stopTime="0.00" timeLoss="9.46" rerouteNo="0" devices="tripinfo_WE_59" vType="car" speedFactor="0.89" vaporized=""/>
    <tripinfo id="NS_70" depart="70.00" departLane="2i_0" departPos="4.10" departSpeed="0.00" departDelay="0.00" arrival="155.00" arrivalLane="3o_0" arrivalPos="492.80" arrivalSpeed="10.35" duration="85.00" routeLength="995.70" waitingTime="0.00" waitingCount="0" stopTime="0.00" timeLoss="10.05" rerouteNo="0" devices="tripinfo_NS_70" vType="car" speedFactor="0.95" vaporized=""/>
    <tripinfo id="WE_63" depart="63.00" departLane="1i_0" departPos="10.10" departSpeed="0.00" departDelay="0.00" arrival="162.00" arrivalLane="4o_0" arrivalPos="492.80" arrivalSpeed="9.93" duration="99.00" routeLength="989.70" waitingTime="0.00" waitingCount="0" stopTime="0.00" timeLoss="21.38" rerouteNo="0" devices="tripinfo_WE_63" vType="truck" speedFactor="0.91" vaporized=""/>
    <tripinfo id="EW_69" depart="69.00" departLane="4i_0" departPos="4.10" departSpeed="0.00" departDelay="0.00" arrival="165.00" arrivalLane="3o_0" arrivalPos="492.80" arrivalSpeed="9.49" duration="96.00" routeLength="995.90" waitingTime="6.00" waitingCount="2" stopTime="0.00" timeLoss="18.87" rerouteNo="0" devices="tripinfo_EW_69" vType="car" speedFactor="0.92" vaporized=""/>
    <tripinfo id="NS_78" depart="78.00" departLane="2i_0" departPos="4.10" departSpeed="0.00" departDelay="0.00" arrival="166.00" arrivalLane="1o_0" arrivalPos="492.80" arrivalSpeed="10.27" duration="88.00" routeLength="995.90" waitingTime="1.00" waitingCount="1" stopTime="0.00" timeLoss="12.15" rerouteNo="0" devices="tripinfo_NS_78" vType="car" speedFactor="0.93" vaporized=""/>
    <tripinfo id="EW_75" depart="75.00" departLane="4i_0" departPos="10.10" departSpeed="0.00" departDelay="0.00" arrival="168.00" arrivalLane="3o_0" arrivalPos="492.80" arrivalSpeed="11.65" duration="93.00" routeLength="989.90" waitingTime="0.00" waitingCount="0" stopTime="0.00" timeLoss="25.54" rerouteNo="0" devices="tripinfo_EW_75" vType="truck" speedFactor="1.07" vaporized=""/>
    <tripinfo id="NS_91" depart="91.00" departLane="2i_0" departPos="4.10" departSpeed="0.00" departDelay="0.00" arrival="170.00" arrivalLane="3o_0" arrivalPos="492.80" arrivalSpeed="13.01" duration="79.00" routeLength="995.70" waitingTime="2.00" waitingCount="1" stopTime="0.00" timeLoss="18.34" rerouteNo="0" devices="tripinfo_NS_91" vType="car" speedFactor="1.17" vaporized=""/>
    <tripinfo id="WE_69" depart="69.00" departLane="1i_0" departPos="4.10" departSpeed="0.00" departDelay="0.00" arrival="171.00" arrivalLane="2o_0" arrivalPos="492.80" arrivalSpeed="8.84" duration="102.00" routeLength="995.90" waitingTime="2.00" waitingCount="1" stopTime="0.00" timeLoss="21.07" rerouteNo="0" devices="tripinfo_WE_69" vType="car" speedFactor="0.87" vaporized=""/>
    <tripinfo id="NS_87" depart="87.00" departLane="2i_0" departPos="4.10" departSpeed="0.00" departDelay="0.00" arrival="172.00" arrivalLane="1o_0" arrivalPos="492.80" arrivalSpeed="10.05" duration="85.00" routeLength="995.90" waitingTime="0.00" waitingCount="0" stopTime="0.00" timeLoss="14.41" rerouteNo="0" devices="tripinfo_NS_87" vType="car" speedFactor="1.01" vaporized=""/>
    <tripinfo id="EW_80" depart="80.00" departLane="4i_0" departPos="4.10" departSpeed="0.00" departDelay="0.00" arrival="174.00" arrivalLane="1o_0" arrivalPos="492.80" arrivalSpeed="12.01" duration="94.00" routeLength="990.53" waitingTime="6.00" waitingCount="2" stopTime="0.00" timeLoss="33.63" rerouteNo="0" devices="tripinfo_EW_80" vType="car" speedFactor="1.18" vaporized=""/>
    <tripinfo id="WE_94" depart="94.00" departLane="1i_0" departPos="4.10" departSpeed="0.00" departDelay="0.00" arrival="175.00" arrivalLane="4o_0" arrivalPos="492.80" arrivalSpeed="9.89" duration="81.00" routeLength="995.70" waitingTime="0.00" waitingCount="0" stopTime="0.00" timeLoss="9.83" rerouteNo="0" devices="tripinfo_WE_94" vType="car" speedFactor="0.99" vaporized=""/>
    <tripinfo id="EW_85" depart="85.00" departLane="4i_0" departPos="4.10" departSpeed="0.00" departDelay="0.00" arrival="178.00" arrivalLane="3o_0" arrivalPos="492.80" arrivalSpeed="12.48" duration="93.00" routeLength="995.90" waitingTime="4.00" waitingCount="1" stopTime="0.00" timeLoss="31.84" rerouteNo="0" devices="tripinfo_EW_85" vType="car" speedFactor="1.15" vaporized=""/>
    <tripinfo id="NS_99" depart="99.00" departLane="2i_0" departPos="4.10" departSpeed="0.00" departDelay="0.00" arrival="180.00" arrivalLane="4o_0" arrivalPos="492.80" arrivalSpeed="10.57" duration="81.00" routeLength="990.53" waitingTime="0.00" waitingCount="0" stopTime="0.00" timeLoss="8.48" rerouteNo="0" devices="tripinfo_NS_99" vType="car" speedFactor="0.97" vaporized=""/>
    <tripinfo id="NS_104" depart="104.00" departLane="2i_0" departPos="4.10" departSpeed="0.00" departDelay="0.00" arrival="182.00" arrivalLane="4o_0" arrivalPos="492.80" arrivalSpeed="11.87" duration="78.00" routeLength="990.53" waitingTime="0.00" waitingCount="0" stopTime="0.00" timeLoss="13.40" rerouteNo="0" devices="tripinfo_NS_104" vType="car" speedFactor="1.10" vaporized=""/>
    <tripinfo id="EW_100" depart="100.00" departLane="4i_0" departPos="4.10" departSpeed="0.00" departDelay="0.00" arrival="185.00" arrivalLane="1o_0" arrivalPos="492.80" arrivalSpeed="12.61" duration="85.00" routeLength="990.53" waitingTime="0.00" waitingCount="0" stopTime="0.00" timeLoss="25.47" rerouteNo="0" devices="tripinfo_EW_100" vType="car" speedFactor="1.18" vaporized=""/>
    <tripinfo id="EW_97" depart="97.00" departLane="4i_0" departPos="4.10" departSpeed="0.00" departDelay="0.00" arrival="188.00" arrivalLane="2o_0" arrivalPos="492.80" arrivalSpeed="10.58" duration="91.00" routeLength="995.70" waitingTime="1.00" waitingCount="1" stopTime="0.00" timeLoss="21.40" rerouteNo="0" devices="tripinfo_EW_97" vType="car" speedFactor="1.02" vaporized=""/>
    <tripinfo id="SN_113" depart="113.00" departLane="3i_0" departPos="4.10" departSpeed="0.00" departDelay="0.00" arrival="191.00" arrivalLane="4o_0" arrivalPos="492.80" arrivalSpeed="11.34" duration="78.00" routeLength="995.90" waitingTime="0.00" waitingCount="0" stopTime="0.00" timeLoss="8.56" rerouteNo="0" devices="tripinfo_SN_113" vType="car" speedFactor="1.03" vaporized=""/>
    <tripinfo id="NS_119" depart="119.00" departLane="2i_0" departPos="4.10" departSpeed="0.00" departDelay="0.00" arrival="202.00" arrivalLane="4o_0" arrivalPos="492.80" arrivalSpeed="9.44" duration="83.00" routeLength="990.53" waitingTime="0.00" waitingCount="0" stopTime="0.00" timeLoss="9.31" rerouteNo="0" devices="tripinfo_NS_119" vType="car" speedFactor="0.96" vaporized=""/>
    <tripinfo id="NS_123" depart="123.00" departLane="2i_0" departPos="4.10" departSpeed="0.00" departDelay="0.00" arrival="202.00" arrivalLane="1o_0" arrivalPos="492.80" arrivalSpeed="10.86" duration="79.00" routeLength="995.90" waitingTime="0.00" waitingCount="0" stopTime="0.00" timeLoss="13.82" rerouteNo="0" devices="tripinfo_NS_123" vType="car" speedFactor="1.09" vaporized=""/>
    <tripinfo id="EW_108" depart="108.00" departLane="4i_0" departPos="4.10" departSpeed="0.00" departDelay="0.00" arrival="203.00" arrivalLane="3o_0" arrivalPos="492.80" arrivalSpeed="9.66" duration="95.00" routeLength="995.90" waitingTime="0.00" waitingCount="0" stopTime="0.00" timeLoss="15.86" rerouteNo="0" devices="tripinfo_EW_108" vType="car" speedFactor="0.90" vaporized=""/>
    <tripinfo id="NS_124" depart="126.00" departLane="2i_0" departPos="4.10" departSpeed="0.00" departDelay="2.00" arrival="206.00" arrivalLane="1o_0" arrivalPos="492.80" arrivalSpeed="10.38" duration="80.00" routeLength="995.90" waitingTime="0.00" waitingCount="0" stopTime="0.00" timeLoss="11.69" rerouteNo="0" devices="tripinfo_NS_124" vType="car" speedFactor="1.04" vaporized=""/>
    <tripinfo id="EW_124" depart="124.00" departLane="4i_0" departPos="10.10" departSpeed="0.00" departDelay="0.00" arrival="208.00" arrivalLane="1o_0" arrivalPos="492.80" arrivalSpeed="11.12" duration="84.00" routeLength="984.53" waitingTime="0.00" waitingCount="0" stopTime="0.00" timeLoss="15.28" rerouteNo="0" devices="tripinfo_EW_124" vType="truck" speedFactor="1.02" vaporized=""/>
    <tripinfo id="EW_125" depart="128.00" departLane="4i_0" departPos="4.10" departSpeed="0.00" departDelay="3.00" arrival="209.00" arrivalLane="3o_0" arrivalPos="492.80" arrivalSpeed="10.92" duration="81.00" routeLength="995.90" waitingTime="0.00" waitingCount="0" stopTime="0.00" timeLoss="15.61" rerouteNo="0" devices="tripinfo_EW_125" vType="car" speedFactor="1.09" vaporized=""/>
    <tripinfo id="SN_127" depart="128.00" departLane="3i_0" departPos="4.10" departSpeed="0.00" departDelay="1.00" arrival="211.00" arrivalLane="2o_0" arrivalPos="492.80" arrivalSpeed="10.29" duration="83.00" routeLength="990.53" waitingTime="2.00" waitingCount="1" stopTime="0.00" timeLoss="11.64" rerouteNo="0" devices="tripinfo_SN_127" vType="car" speedFactor="1.00" vaporized=""/>
    <tripinfo id="WE_134" depart="134.00" departLane="1i_0" departPos="4.10" departSpeed="0.00" departDelay="0.00" arrival="221.00" arrivalLane="3o_0" arrivalPos="492.80" arrivalSpeed="9.84" duration="87.00" routeLength="990.53" waitingTime="0.00" waitingCount="0" stopTime="0.00" timeLoss="8.80" rerouteNo="0" devices="tripinfo_WE_134" vType="car" speedFactor="0.90" vaporized=""/>
    <tripinfo id="SN_134" depart="134.00" departLane="3i_0" departPos="4.10" departSpeed="0.00" departDelay="0.00" arrival="225.00" arrivalLane="1o_0" arrivalPos="492.80" arrivalSpeed="9.22" duration="91.00" routeLength="995.70" waitingTime="0.00" waitingCount="0" stopTime="0.00" timeLoss="10.44" rerouteNo="0" devices="tripinfo_SN_134" vType="car" speedFactor="0.88" vaporized=""/>
    <tripinfo id="SN_161" depart="161.00" departLane="3i_0" departPos="4.10" departSpeed="0.00" departDelay="0.00" arrival="238.00" arrivalLane="1o_0" arrivalPos="492.80" arrivalSpeed="12.98" duration="77.00" routeLength="995.70" waitingTime="1.00" waitingCount="1" stopTime="0.00" timeLoss="15.83" rerouteNo="0" devices="tripinfo_SN_161" vType="car" speedFactor="1.17" vaporized=""/>
    <tripinfo id="NS_166" depart="166.00" departLane="2i_0" departPos="4.10" departSpeed="0.00" departDelay="0.00" arrival="239.00" arrivalLane="4o_0" arrivalPos="492.80" arrivalSpeed="12.07" duration="73.00" routeLength="990.53" waitingTime="0.00" waitingCount="0" stopTime="0.00" timeLoss="8.36" rerouteNo="0" devices="tripinfo_NS_166" vType="car" speedFactor="1.10" vaporized=""/>
    <tripinfo id="WE_149" depart="149.00" departLane="1i_0" departPos="4.10" departSpeed="0.00" departDelay="0.00" arrival="243.00" arrivalLane="3o_0" arrivalPos="492.80" arrivalSpeed="8.30" duration="94.00" routeLength="990.53" waitingTime="0.00" waitingCount="0" stopTime="0.00" timeLoss="10.99" rerouteNo="0" devices="tripinfo_WE_149" vType="car" speedFactor="0.85" vaporized=""/>
    <tripinfo id="SN_171" depart="171.00" departLane="3i_0" departPos="4.10" departSpeed="0.00" departDelay="0.00" arrival="243.00" arrivalLane="4o_0" arrivalPos="492.80" arrivalSpeed="12.09" duration="72.00" routeLength="995.90" waitingTime="0.00" waitingCount="0" stopTime="0.00" timeLoss="9.41" rerouteNo="0" devices="tripinfo_SN_171" vType="car" speedFactor="1.14" vaporized=""/>
    <tripinfo id="EW_163" depart="163.00" departLane="4i_0" departPos="4.10" departSpeed="0.00" departDelay="0.00" arrival="245.00" arrivalLane="2o_0" arrivalPos="492.80" arrivalSpeed="10.85" duration="82.00" routeLength="995.70" waitingTime="0.00" waitingCount="0" stopTime="0.00" timeLoss="11.72" rerouteNo="0" devices="tripinfo_EW_163" vType="car" speedFactor="1.02" vaporized=""/>
    <tripinfo id="EW_150" depart="150.00" departLane="4i_0" departPos="4.10" departSpeed="0.00" departDelay="0.00" arrival="248.00" arrivalLane="3o_0" arrivalPos="492.80" arrivalSpeed="8.61" duration="98.00" routeLength="995.90" waitingTime="4.00" waitingCount="1" stopTime="0.00" timeLoss="15.04" rerouteNo="0" devices="tripinfo_EW_150" vType="car" speedFactor="0.85" vaporized=""/>
    <tripinfo id="NS_167" depart="169.00" departLane="2i_0" departPos="4.10" departSpeed="0.00" departDelay="2.00" arrival="254.00" arrivalLane="1o_0" arrivalPos="492.80" arrivalSpeed="11.10" duration="85.00" routeLength="995.90" waitingTime="4.00" waitingCount="1" stopTime="0.00" timeLoss="13.81" rerouteNo="0" devices="tripinfo_NS_167" vType="car" speedFactor="1.00" vaporized=""/>
    <tripinfo id="WE_169" depart="169.00" departLane="1i_0" departPos="4.10" departSpeed="0.00" departDelay="0.00" arrival="254.00" arrivalLane="2o_0" arrivalPos="492.80" arrivalSpeed="10.37" duration="85.00" routeLength="995.90" waitingTime="4.00" waitingCount="1" stopTime="0.00" timeLoss="13.74" rerouteNo="0" devices="tripinfo_WE_169" vType="car" speedFactor="1.00" vaporized=""/>
    <tripinfo id="NS_174" depart="174.00" departLane="2i_0" departPos="4.10" departSpeed="0.00" departDelay="0.00" arrival="256.00" arrivalLane="1o_0" arrivalPos="492.80" arrivalSpeed="10.91" duration="82.00" routeLength="995.90" waitingTime="0.00" waitingCount="0" stopTime="0.00" timeLoss="15.96" rerouteNo="0" devices="tripinfo_NS_174" vType="car" speedFactor="1.08" vaporized=""/>
    <tripinfo id="SN_172" depart="173.00" departLane="3i_0" departPos="4.10" departSpeed="0.00" departDelay="1.00" arrival="257.00" arrivalLane="2o_0" arrivalPos="492.80" arrivalSpeed="11.02" duration="84.00" routeLength="990.53" waitingTime="3.00" waitingCount="2" stopTime="0.00" timeLoss="14.98" rerouteNo="0" devices="tripinfo_SN_172" vType="car" speedFactor="1.02" vaporized=""/>
    <tripinfo id="WE_173" depart="174.00" departLane="1i_0" departPos="4.10" departSpeed="0.00" departDelay="1.00" arrival="262.00" arrivalLane="4o_0" arrivalPos="492.80" arrivalSpeed="10.53" duration="88.00" routeLength="995.70" waitingTime="1.00" waitingCount="1" stopTime="0.00" timeLoss="14.60" rerouteNo="0" devices="tripinfo_WE_173" vType="car" speedFactor="0.97" vaporized=""/>
    <tripinfo id="EW_170" depart="170.00" departLane="4i_0" departPos="4.10" departSpeed="0.00" departDelay="0.00" arrival="265.00" arrivalLane="1o_0" arrivalPos="492.80" arrivalSpeed="9.17" duration="95.00" routeLength="990.53" waitingTime="6.00" waitingCount="1" stopTime="0.00" timeLoss="16.66" rerouteNo="0" devices="tripinfo_EW_170" vType="car" speedFactor="0.90" vaporized=""/>
    <tripinfo id="NS_178" depart="178.00" departLane="2i_0" departPos="4.10" departSpeed="0.00" departDelay="0.00" arrival="265.00" arrivalLane="4o_0" arrivalPos="492.80" arrivalSpeed="10.36" duration="87.00" routeLength="990.53" waitingTime="2.00" waitingCount="1" stopTime="0.00" timeLoss="15.31" rerouteNo="0" devices="tripinfo_NS_178" vType="car" speedFactor="0.99" vaporized=""/>
    <tripinfo id="SN_174" depart="178.00" departLane="3i_0" departPos="10.10" departSpeed="0.00" departDelay="4.00" arrival="267.00" arrivalLane="4o_0" arrivalPos="492.80" arrivalSpeed="11.19" duration="89.00" routeLength="989.90" waitingTime="0.00" waitingCount="0" stopTime="0.00" timeLoss="21.87" rerouteNo="0" devices="tripinfo_SN_174" vType="truck" speedFactor="1.06" vaporized=""/>
    <tripinfo id="SN_175" depart="182.00" departLane="3i_0" departPos="4.10" departSpeed="0.00" departDelay="7.00" arrival="270.00" arrivalLane="2o_0" arrivalPos="492.80" arrivalSpeed="10.51" duration="88.00" routeLength="990.53" waitingTime="0.00" waitingCount="0" stopTime="0.00" timeLoss="18.04" rerouteNo="0" devices="tripinfo_SN_175" vType="car" speedFactor="1.02" vaporized=""/>
    <tripinfo id="NS_184" depart="184.00" departLane="2i_0" departPos="4.10" departSpeed="0.00" departDelay="0.00" arrival="273.00" arrivalLane="4o_0" arrivalPos="492.80" arrivalSpeed="9.45" duration="89.00" routeLength="990.53" waitingTime="1.00" waitingCount="1" stopTime="0.00" timeLoss="13.92" rerouteNo="0" devices="tripinfo_NS_184" vType="car" speedFactor="0.94" vaporized=""/>
    <tripinfo id="NS_193" depart="193.00" departLane="2i_0" departPos="4.10" departSpeed="0.00" departDelay="0.00" arrival="274.00" arrivalLane="3o_0" arrivalPos="492.80" arrivalSpeed="10.66" duration="81.00" routeLength="995.70" waitingTime="1.00" waitingCount="1" stopTime="0.00" timeLoss="12.95" rerouteNo="0" devices="tripinfo_NS_193" vType="car" speedFactor="1.04" vaporized=""/>
    <tripinfo id="EW_187" depart="187.00" departLane="4i_0" departPos="4.10" departSpeed="0.00" departDelay="0.00" arrival="280.00" arrivalLane="2o_0" arrivalPos="492.80" arrivalSpeed="9.67" duration="93.00" routeLength="995.70" waitingTime="0.00" waitingCount="0" stopTime="0.00" timeLoss="14.36" rerouteNo="0" devices="tripinfo_EW_187" vType="car" speedFactor="0.91" vaporized=""/>
    <tripinfo id="EW_202" depart="202.00" departLane="4i_0" departPos="4.10" departSpeed="0.00" departDelay="0.00" arrival="280.00" arrivalLane="3o_0" arrivalPos="492.80" arrivalSpeed="10.92" duration="78.00" routeLength="995.90" waitingTime="0.00" waitingCount="0" stopTime="0.00" timeLoss="8.25" rerouteNo="0" devices="tripinfo_EW_202" vType="car" speedFactor="1.02" vaporized=""/>
    <tripinfo id="SN_185" depart="185.00" departLane="3i_0" departPos="4.10" departSpeed="0.00" departDelay="0.00" arrival="283.00" arrivalLane="2o_0" arrivalPos="492.80" arrivalSpeed="8.80" duration="98.00" routeLength="990.53" waitingTime="1.00" waitingCount="1" stopTime="0.00" timeLoss="17.95" rerouteNo="0" devices="tripinfo_SN_185" vType="car" speedFactor="0.88" vaporized=""/>
    <tripinfo id="EW_190" depart="191.00" departLane="4i_0" departPos="4.10" departSpeed="0.00" departDelay="1.00" arrival="285.00" arrivalLane="2o_0" arrivalPos="492.80" arrivalSpeed="9.96" duration="94.00" routeLength="995.70" waitingTime="0.00" waitingCount="0" stopTime="0.00" timeLoss="16.13" rerouteNo="0" devices="tripinfo_EW_190" vType="car" speedFactor="0.91" vaporized=""/>
    <tripinfo id="SN_203" depart="203.00" departLane="3i_0" departPos="4.10" departSpeed="0.00" departDelay="0.00" arrival="286.00" arrivalLane="2o_0" arrivalPos="492.80" arrivalSpeed="11.28" duration="83.00" routeLength="990.53" waitingTime="0.00" waitingCount="0" stopTime="0.00" timeLoss="14.19" rerouteNo="0" devices="tripinfo_SN_203" vType="car" speedFactor="1.02" vaporized=""/>
    <tripinfo id="WE_207" depart="208.00" departLane="1i_0" departPos="4.10" departSpeed="0.00" departDelay="1.00" arrival="290.00" arrivalLane="2o_0" arrivalPos="492.80" arrivalSpeed="9.77" duration="82.00" routeLength="995.90" waitingTime="0.00" waitingCount="0" stopTime="0.00" timeLoss="8.66" rerouteNo="0" devices="tripinfo_WE_207" vType="car" speedFactor="0.97" vaporized=""/>
    <tripinfo id="NS_218" depart="218.00" departLane="2i_0" departPos="4.10" departSpeed="0.00" departDelay="0.00" arrival="295.00" arrivalLane="4o_0" arrivalPos="492.80" arrivalSpeed="11.00" duration="77.00" routeLength="990.53" waitingTime="0.00" waitingCount="0" stopTime="0.00" timeLoss="8.49" rerouteNo="0" devices="tripinfo_NS_218" vType="car" speedFactor="1.03" vaporized=""/>
    <tripinfo id="SN_213" depart="213.00" departLane="3i_0" departPos="4.10" departSpeed="0.00" departDelay="0.00" arrival="300.00" arrivalLane="1o_0" arrivalPos="492.80" arrivalSpeed="9.43" duration="87.00" routeLength="995.70" waitingTime="0.00" waitingCount="0" stopTime="0.00" timeLoss="11.34" rerouteNo="0" devices="tripinfo_SN_213" vType="car" speedFactor="0.94" vaporized=""/>
    <tripinfo id="WE_216" depart="216.00" departLane="1i_0" departPos="4.10" departSpeed="0.00" departDelay="0.00" arrival="301.00" arrivalLane="4o_0" arrivalPos="492.80" arrivalSpeed="10.03" duration="85.00" routeLength="995.70" waitingTime="0.00" waitingCount="0" stopTime="0.00" timeLoss="10.74" rerouteNo="0" devices="tripinfo_WE_216" vType="car" speedFactor="0.96" vaporized=""/>
    <tripinfo id="SN_215" depart="217.00" departLane="3i_0" departPos="10.10" departSpeed="0.00" departDelay="2.00" arrival="304.00" arrivalLane="4o_0" arrivalPos="492.80" arrivalSpeed="10.98" duration="87.00" routeLength="989.90" waitingTime="0.00" waitingCount="0" stopTime="0.00" timeLoss="17.85" rerouteNo="0" devices="tripinfo_SN_215" vType="truck" speedFactor="1.03" vaporized=""/>