<?xml version="1.0" encoding="UTF-8"?>

<!-- generated on 2024-05-04 18:19:32 by Eclipse SUMO sumo Version 1.19.0
<configuration xmlns:xsi="http://www.w3.org/2001/XMLSchema-instance" xsi:noNamespaceSchemaLocation="http://sumo.dlr.de/xsd/sumoConfiguration.xsd">

    <input>
        <net-file value="test5.net.xml"/>
        <route-files value="route_gen.rou.xml"/>
    </input>

    <output>
        <tripinfo-output value="tripinfo_epi347.xml"/>
    </output>

    <report>
        <no-warnings value="true"/>
    </report>

    <traci_server>
        <remote-port value="45555"/>
    </traci_server>

</configuration>
-->

<tripinfos xmlns:xsi="http://www.w3.org/2001/XMLSchema-instance" xsi:noNamespaceSchemaLocation="http://sumo.dlr.de/xsd/tripinfo_file.xsd">
    <tripinfo id="EW_5" depart="5.00" departLane="4i_0" departPos="4.10" departSpeed="0.00" departDelay="0.00" arrival="82.00" arrivalLane="1o_0" arrivalPos="492.80" arrivalSpeed="10.55" duration="77.00" routeLength="990.53" waitingTime="0.00" waitingCount="0" stopTime="0.00" timeLoss="8.59" rerouteNo="0" devices="tripinfo_EW_5" vType="car" speedFactor="1.03" vaporized=""/>
    <tripinfo id="SN_0" depart="0.00" departLane="3i_0" departPos="10.10" departSpeed="0.00" departDelay="0.00" arrival="84.00" arrivalLane="2o_0" arrivalPos="492.80" arrivalSpeed="10.58" duration="84.00" routeLength="984.53" waitingTime="0.00" waitingCount="0" stopTime="0.00" timeLoss="11.14" rerouteNo="0" devices="tripinfo_SN_0" vType="truck" speedFactor="0.97" vaporized=""/>
    <tripinfo id="WE_4" depart="4.00" departLane="1i_0" departPos="4.10" departSpeed="0.00" departDelay="0.00" arrival="87.00" arrivalLane="4o_0" arrivalPos="492.80" arrivalSpeed="11.24" duration="83.00" routeLength="995.70" waitingTime="4.00" waitingCount="1" stopTime="0.00" timeLoss="16.97" rerouteNo="0" devices="tripinfo_WE_4" vType="car" speedFactor="1.08" vaporized=""/>
    <tripinfo id="NS_0" depart="0.00" departLane="2i_0" departPos="10.10" departSpeed="0.00" departDelay="0.00" arrival="92.00" arrivalLane="3o_0" arrivalPos="492.80" arrivalSpeed="11.34" duration="92.00" routeLength="989.70" waitingTime="2.00" waitingCount="2" stopTime="0.00" timeLoss="23.23" rerouteNo="0" devices="tripinfo_NS_0" vType="truck" speedFactor="1.03" vaporized=""/>
    <tripinfo id="EW_14" depart="14.00" departLane="4i_0" departPos="4.10" departSpeed="0.00" departDelay="0.00" arrival="95.00" arrivalLane="2o_0" arrivalPos="492.80" arrivalSpeed="11.29" duration="81.00" routeLength="995.70" waitingTime="0.00" waitingCount="0" stopTime="0.00" timeLoss="13.17" rerouteNo="0" devices="tripinfo_EW_14" vType="car" speedFactor="1.05" vaporized=""/>
    <tripinfo id="NS_3" depart="4.00" departLane="2i_0" departPos="4.10" departSpeed="0.00" departDelay="1.00" arrival="102.00" arrivalLane="3o_0" arrivalPos="492.80" arrivalSpeed="11.10" duration="98.00" routeLength="995.70" waitingTime="2.00" waitingCount="2" stopTime="0.00" timeLoss="27.56" rerouteNo="0" devices="tripinfo_NS_3" vType="car" speedFactor="1.01" vaporized=""/>
    <tripinfo id="EW_21" depart="21.00" departLane="4i_0" departPos="4.10" departSpeed="0.00" departDelay="0.00" arrival="104.00" arrivalLane="3o_0" arrivalPos="492.80" arrivalSpeed="11.15" duration="83.00" routeLength="995.90" waitingTime="1.00" waitingCount="1" stopTime="0.00" timeLoss="13.44" rerouteNo="0" devices="tripinfo_EW_21" vType="car" speedFactor="1.03" vaporized=""/>
    <tripinfo id="EW_23" depart="24.00" departLane="4i_0" departPos="4.10" departSpeed="0.00" departDelay="1.00" arrival="107.00" arrivalLane="3o_0" arrivalPos="492.80" arrivalSpeed="11.15" duration="83.00" routeLength="995.90" waitingTime="0.00" waitingCount="0" stopTime="0.00" timeLoss="15.03" rerouteNo="0" devices="tripinfo_EW_23" vType="car" speedFactor="1.05" vaporized=""/>
    <tripinfo id="SN_8" depart="8.00" departLane="3i_0" departPos="4.10" departSpeed="0.00" departDelay="0.00" arrival="110.00" arrivalLane="1o_0" arrivalPos="492.80" arrivalSpeed="9.20" duration="102.00" routeLength="995.70" waitingTime="2.00" waitingCount="1" stopTime="0.00" timeLoss="16.80" rerouteNo="0" devices="tripinfo_SN_8" vType="car" speedFactor="0.83" vaporized=""/>
    <tripinfo id="EW_24" depart="27.00" departLane="4i_0" departPos="4.10" departSpeed="0.00" departDelay="3.00" arrival="118.00" arrivalLane="2o_0" arrivalPos="492.80" arrivalSpeed="11.65" duration="91.00" routeLength="995.70" waitingTime="8.00" waitingCount="2" stopTime="0.00" timeLoss="28.16" rerouteNo="0" devices="tripinfo_EW_24" vType="car" speedFactor="1.12" vaporized=""/>
    <tripinfo id="NS_17" depart="19.00" departLane="2i_0" departPos="4.10" departSpeed="0.00" departDelay="2.00" arrival="120.00" arrivalLane="3o_0" arrivalPos="492.80" arrivalSpeed="9.88" duration="101.00" routeLength="995.70" waitingTime="6.00" waitingCount="1" stopTime="0.00" timeLoss="25.63" rerouteNo="0" devices="tripinfo_NS_17" vType="car" speedFactor="0.94" vaporized=""/>
    <tripinfo id="SN_17" depart="17.00" departLane="3i_0" departPos="4.10" departSpeed="0.00" departDelay="0.00" arrival="121.00" arrivalLane="1o_0" arrivalPos="492.80" arrivalSpeed="9.47" duration="104.00" routeLength="995.70" waitingTime="7.00" waitingCount="1" stopTime="0.00" timeLoss="21.01" rerouteNo="0" devices="tripinfo_SN_17" vType="car" speedFactor="0.86" vaporized=""/>
    <tripinfo id="WE_27" depart="27.00" departLane="1i_0" departPos="4.10" departSpeed="0.00" departDelay="0.00" arrival="121.00" arrivalLane="4o_0" arrivalPos="492.80" arrivalSpeed="10.26" duration="94.00" routeLength="995.70" waitingTime="7.00" waitingCount="1" stopTime="0.00" timeLoss="22.70" rerouteNo="0" devices="tripinfo_WE_27" vType="car" speedFactor="0.99" vaporized=""/>
    <tripinfo id="NS_16" depart="16.00" departLane="2i_0" departPos="4.10" departSpeed="0.00" departDelay="0.00" arrival="123.00" arrivalLane="1o_0" arrivalPos="492.80" arrivalSpeed="9.84" duration="107.00" routeLength="995.90" waitingTime="8.00" waitingCount="2" stopTime="0.00" timeLoss="26.76" rerouteNo="0" devices="tripinfo_NS_16" vType="car" speedFactor="0.89" vaporized=""/>
    <tripinfo id="SN_30" depart="30.00" departLane="3i_0" departPos="10.10" departSpeed="0.00" departDelay="0.00" arrival="130.00" arrivalLane="1o_0" arrivalPos="492.80" arrivalSpeed="10.32" duration="100.00" routeLength="989.70" waitingTime="3.00" waitingCount="1" stopTime="0.00" timeLoss="24.74" rerouteNo="0" devices="tripinfo_SN_30" vType="truck" speedFactor="0.94" vaporized=""/>
    <tripinfo id="NS_20" depart="23.00" departLane="2i_0" departPos="10.10" departSpeed="0.00" departDelay="3.00" arrival="132.00" arrivalLane="3o_0" arrivalPos="492.80" arrivalSpeed="11.06" duration="109.00" routeLength="989.70" waitingTime="8.00" waitingCount="4" stopTime="0.00" timeLoss="41.14" rerouteNo="0" devices="tripinfo_NS_20" vType="truck" speedFactor="1.05" vaporized=""/>
    <tripinfo id="WE_30" depart="31.00" departLane="1i_0" departPos="10.10" departSpeed="0.00" departDelay="1.00" arrival="136.00" arrivalLane="4o_0" arrivalPos="492.80" arrivalSpeed="10.18" duration="105.00" routeLength="989.70" waitingTime="5.00" waitingCount="1" stopTime="0.00" timeLoss="31.34" rerouteNo="0" devices="tripinfo_WE_30" vType="truck" speedFactor="0.96" vaporized=""/>
    <tripinfo id="EW_38" depart="38.00" departLane="4i_0" departPos="10.10" departSpeed="0.00" departDelay="0.00" arrival="139.00" arrivalLane="3o_0" arrivalPos="492.80" arrivalSpeed="10.33" duration="101.00" routeLength="989.90" waitingTime="8.00" waitingCount="1" stopTime="0.00" timeLoss="28.58" rerouteNo="0" devices="tripinfo_EW_38" vType="truck" speedFactor="0.97" vaporized=""/>
    <tripinfo id="NS_50" depart="50.00" departLane="2i_0" departPos="4.10" departSpeed="0.00" departDelay="0.00" arrival="140.00" arrivalLane="1o_0" arrivalPos="492.80" arrivalSpeed="10.87" duration="90.00" routeLength="995.90" waitingTime="2.00" waitingCount="2" stopTime="0.00" timeLoss="20.23" rerouteNo="0" devices="tripinfo_NS_50" vType="car" speedFactor="1.02" vaporized=""/>
    <tripinfo id="SN_55" depart="55.00" departLane="3i_0" departPos="4.10" departSpeed="0.00" departDelay="0.00" arrival="140.00" arrivalLane="2o_0" arrivalPos="492.80" arrivalSpeed="9.68" duration="85.00" routeLength="990.53" waitingTime="0.00" waitingCount="0" stopTime="0.00" timeLoss="8.26" rerouteNo="0" devices="tripinfo_SN_55" vType="car" speedFactor="0.92" vaporized=""/>
    <tripinfo id="NS_52" depart="52.00" departLane="2i_0" departPos="4.10" departSpeed="0.00" departDelay="0.00" arrival="144.00" arrivalLane="1o_0" arrivalPos="492.80" arrivalSpeed="10.41" duration="92.00" routeLength="995.90" waitingTime="1.00" waitingCount="1" stopTime="0.00" timeLoss="19.54" rerouteNo="0" devices="tripinfo_NS_52" vType="car" speedFactor="0.97" vaporized=""/>
    <tripinfo id="WE_52" depart="52.00" departLane="1i_0" departPos="10.10" departSpeed="0.00" departDelay="0.00" arrival="146.00" arrivalLane="3o_0" arrivalPos="492.80" arrivalSpeed="10.91" duration="94.00" routeLength="984.53" waitingTime="2.00" waitingCount="1" stopTime="0.00" timeLoss="23.89" rerouteNo="0" devices="tripinfo_WE_52" vType="truck" speedFactor="1.01" vaporized=""/>
    <tripinfo id="EW_44" depart="45.00" departLane="4i_0" departPos="4.10" departSpeed="0.00" departDelay="1.00" arrival="148.00" arrivalLane="3o_0" arrivalPos="492.80" arrivalSpeed="11.73" duration="103.00" routeLength="995.90" waitingTime="5.00" waitingCount="1" stopTime="0.00" timeLoss="41.67" rerouteNo="0" devices="tripinfo_EW_44" vType="car" speedFactor="1.16" vaporized=""/>
    <tripinfo id="EW_40" depart="42.00" departLane="4i_0" departPos="4.10" departSpeed="0.00" departDelay="2.00" arrival="150.00" arrivalLane="2o_0" arrivalPos="492.80" arrivalSpeed="9.44" duration="108.00" routeLength="995.70" waitingTime="8.00" waitingCount="2" stopTime="0.00" timeLoss="32.12" rerouteNo="0" devices="tripinfo_EW_40" vType="car" speedFactor="0.94" vaporized=""/>
    <tripinfo id="NS_63" depart="64.00" departLane="2i_0" departPos="4.10" departSpeed="0.00" departDelay="1.00" arrival="150.00" arrivalLane="3o_0" arrivalPos="492.80" arrivalSpeed="11.84" duration="86.00" routeLength="995.70" waitingTime="1.00" waitingCount="1" stopTime="0.00" timeLoss="25.48" rerouteNo="0" devices="tripinfo_NS_63" vType="car" speedFactor="1.18" vaporized=""/>
    <tripinfo id="NS_61" depart="61.00" departLane="2i_0" departPos="4.10" departSpeed="0.00" departDelay="0.00" arrival="152.00" arrivalLane="4o_0" arrivalPos="492.80" arrivalSpeed="9.29" duration="91.00" routeLength="990.53" waitingTime="1.00" waitingCount="1" stopTime="0.00" timeLoss="15.41" rerouteNo="0" devices="tripinfo_NS_61" vType="car" speedFactor="0.93" vaporized=""/>
    <tripinfo id="NS_64" depart="67.00" departLane="2i_0" departPos="4.10" departSpeed="0.00" departDelay="3.00" arrival="155.00" arrivalLane="4o_0" arrivalPos="492.80" arrivalSpeed="11.58" duration="88.00" routeLength="990.53" waitingTime="2.00" waitingCount="2" stopTime="0.00" timeLoss="26.94" rerouteNo="0" devices="tripinfo_NS_64" vType="car" speedFactor="1.15" vaporized=""/>
    <tripinfo id="EW_53" depart="53.00" departLane="4i_0" departPos="4.10" departSpeed="0.00" departDelay="0.00" arrival="158.00" arrivalLane="1o_0" arrivalPos="492.80" arrivalSpeed="8.91" duration="105.00" routeLength="990.53" waitingTime="0.00" waitingCount="0" stopTime="0.00" timeLoss="25.22" rerouteNo="0" devices="tripinfo_EW_53" vType="car" speedFactor="0.89" vaporized=""/>
    <tripinfo id="NS_65" depart="69.00" departLane="2i_0" departPos="4.10" departSpeed="0.00" departDelay="4.00" arrival="159.00" arrivalLane="3o_0" arrivalPos="492.80" arrivalSpeed="11.81" duration="90.00" routeLength="995.70" waitingTime="1.00" waitingCount="1" stopTime="0.00" timeLoss="29.45" rerouteNo="0" devices="tripinfo_NS_65" vType="car" speedFactor="1.17" vaporized=""/>
    <tripinfo id="SN_64" depart="64.00" departLane="3i_0" departPos="10.10" departSpeed="0.00" departDelay="0.00" arrival="160.00" arrivalLane="1o_0" arrivalPos="492.80" arrivalSpeed="10.87" duration="96.00" routeLength="989.70" waitingTime="1.00" waitingCount="1" stopTime="0.00" timeLoss="25.47" rerouteNo="0" devices="tripinfo_SN_64" vType="truck" speedFactor="1.00" vaporized=""/>
    <tripinfo id="EW_75" depart="75.00" departLane="4i_0" departPos="4.10" departSpeed="0.00" departDelay="0.00" arrival="160.00" arrivalLane="2o_0" arrivalPos="492.80" arrivalSpeed="11.04" duration="85.00" routeLength="995.70" waitingTime="0.00" waitingCount="0" stopTime="0.00" timeLoss="13.34" rerouteNo="0" devices="tripinfo_EW_75" vType="car" speedFactor="0.99" vaporized=""/>
    <tripinfo id="SN_80" depart="80.00" departLane="3i_0" departPos="4.10" departSpeed="0.00" departDelay="0.00" arrival="162.00" arrivalLane="1o_0" arrivalPos="492.80" arrivalSpeed="12.34" duration="82.00" routeLength="995.70" waitingTime="0.00" waitingCount="0" stopTime="0.00" timeLoss="21.99" rerouteNo="0" devices="tripinfo_SN_80" vType="car" speedFactor="1.18" vaporized=""/>
    <tripinfo id="EW_77" depart="77.00" departLane="4i_0" departPos="4.10" departSpeed="0.00" departDelay="0.00" arrival="164.00" arrivalLane="1o_0" arrivalPos="492.80" arrivalSpeed="11.33" duration="87.00" routeLength="990.53" waitingTime="0.00" waitingCount="0" stopTime="0.00" timeLoss="17.73" rerouteNo="0" devices="tripinfo_EW_77" vType="car" speedFactor="1.02" vaporized=""/>
    <tripinfo id="EW_85" depart="87.00" departLane="4i_0" departPos="4.10" departSpeed="0.00" departDelay="2.00" arrival="167.00" arrivalLane="3o_0" arrivalPos="492.80" arrivalSpeed="11.49" duration="80.00" routeLength="995.90" waitingTime="0.00" waitingCount="0" stopTime="0.00" timeLoss="15.46" rerouteNo="0" devices="tripinfo_EW_85" vType="car" speedFactor="1.10" vaporized=""/>
    <tripinfo id="WE_54" depart="56.00" departLane="1i_0" departPos="4.10" departSpeed="0.00" departDelay="2.00" arrival="175.00" arrivalLane="4o_0" arrivalPos="492.80" arrivalSpeed="8.02" duration="119.00" routeLength="995.70" waitingTime="10.00" waitingCount="2" stopTime="0.00" timeLoss="32.99" rerouteNo="0" devices="tripinfo_WE_54" vType="car" speedFactor="0.83" vaporized=""/>
    <tripinfo id="WE_55" depart="59.00" departLane="1i_0" departPos="4.10" departSpeed="0.00" departDelay="4.00" arrival="177.00" arrivalLane="2o_0" arrivalPos="492.80" arrivalSpeed="9.19" duration="118.00" routeLength="995.90" waitingTime="10.00" waitingCount="3" stopTime="0.00" timeLoss="36.90" rerouteNo="0" devices="tripinfo_WE_55" vType="car" speedFactor="0.87" vaporized=""/>
    <tripinfo id="SN_91" depart="92.00" departLane="3i_0" departPos="4.10" departSpeed="0.00" departDelay="1.00" arrival="177.00" arrivalLane="4o_0" arrivalPos="492.80" arrivalSpeed="10.16" duration="85.00" routeLength="995.90" waitingTime="0.00" waitingCount="0" stopTime="0.00" timeLoss="15.46" rerouteNo="0" devices="tripinfo_SN_91" vType="car" speedFactor="1.03" vaporized=""/>
    <tripinfo id="SN_95" depart="95.00" departLane="3i_0" departPos="4.10" departSpeed="0.00" departDelay="0.00" arrival="179.00" arrivalLane="2o_0" arrivalPos="492.80" arrivalSpeed="11.28" duration="84.00" routeLength="990.53" waitingTime="0.00" waitingCount="0" stopTime="0.00" timeLoss="15.77" rerouteNo="0" devices="tripinfo_SN_95" vType="car" speedFactor="1.04" vaporized=""/>
    <tripinfo id="EW_89" depart="90.00" departLane="4i_0" departPos="4.10" departSpeed="0.00" departDelay="1.00" arrival="181.00" arrivalLane="2o_0" arrivalPos="492.80" arrivalSpeed="9.33" duration="91.00" routeLength="995.70" waitingTime="0.00" waitingCount="0" stopTime="0.00" timeLoss="12.42" rerouteNo="0" devices="tripinfo_EW_89" vType="car" speedFactor="0.90" vaporized=""/>
    <tripinfo id="WE_57" depart="62.00" departLane="1i_0" departPos="4.10" departSpeed="0.00" departDelay="5.00" arrival="183.00" arrivalLane="2o_0" arrivalPos="492.80" arrivalSpeed="9.72" duration="121.00" routeLength="995.90" waitingTime="12.00" waitingCount="4" stopTime="0.00" timeLoss="46.00" rerouteNo="0" devices="tripinfo_WE_57" vType="car" speedFactor="0.95" vaporized=""/>
    <tripinfo id="NS_99" depart="99.00" departLane="2i_0" departPos="4.10" departSpeed="0.00" departDelay="0.00" arrival="183.00" arrivalLane="4o_0" arrivalPos="492.80" arrivalSpeed="10.39" duration="84.00" routeLength="990.53" waitingTime="2.00" waitingCount="2" stopTime="0.00" timeLoss="16.19" rerouteNo="0" devices="tripinfo_NS_99" vType="car" speedFactor="1.04" vaporized=""/>
    <tripinfo id="NS_93" depart="93.00" departLane="2i_0" departPos="4.10" departSpeed="0.00" departDelay="0.00" arrival="184.00" arrivalLane="3o_0" arrivalPos="492.80" arrivalSpeed="10.45" duration="91.00" routeLength="995.70" waitingTime="3.00" waitingCount="2" stopTime="0.00" timeLoss="16.79" rerouteNo="0" devices="tripinfo_NS_93" vType="car" speedFactor="0.96" vaporized=""/>
    <tripinfo id="EW_100" depart="100.00" departLane="4i_0" departPos="4.10" departSpeed="0.00" departDelay="0.00" arrival="185.00" arrivalLane="2o_0" arrivalPos="492.80" arrivalSpeed="10.99" duration="85.00" routeLength="995.70" waitingTime="1.00" waitingCount="1" stopTime="0.00" timeLoss="19.43" rerouteNo="0" devices="tripinfo_EW_100" vType="car" speedFactor="1.09" vaporized=""/>
    <tripinfo id="WE_60" depart="65.00" departLane="1i_0" departPos="4.10" departSpeed="0.00" departDelay="5.00" arrival="186.00" arrivalLane="2o_0" arrivalPos="492.80" arrivalSpeed="12.24" duration="121.00" routeLength="995.90" waitingTime="14.00" waitingCount="6" stopTime="0.00" timeLoss="58.74" rerouteNo="0" devices="tripinfo_WE_60" vType="car" speedFactor="1.13" vaporized=""/>
    <tripinfo id="EW_94" depart="94.00" departLane="4i_0" departPos="4.10" departSpeed="0.00" departDelay="0.00" arrival="186.00" arrivalLane="3o_0" arrivalPos="492.80" arrivalSpeed="11.97" duration="92.00" routeLength="995.90" waitingTime="2.00" waitingCount="1" stopTime="0.00" timeLoss="26.53" rerouteNo="0" devices="tripinfo_EW_94" vType="car" speedFactor="1.09" vaporized=""/>
    <tripinfo id="SN_100" depart="104.00" departLane="3i_0" departPos="4.10" departSpeed="0.00" departDelay="4.00" arrival="189.00" arrivalLane="1o_0" arrivalPos="492.80" arrivalSpeed="10.53" duration="85.00" routeLength="995.70" waitingTime="0.00" waitingCount="0" stopTime="0.00" timeLoss="13.49" rerouteNo="0" devices="tripinfo_SN_100" vType="car" speedFactor="1.00" vaporized=""/>
    <tripinfo id="SN_119" depart="120.00" departLane="3i_0" departPos="4.10" departSpeed="0.00" departDelay="1.00" arrival="197.00" arrivalLane="4o_0" arrivalPos="492.80" arrivalSpeed="12.02" duration="77.00" routeLength="995.90" waitingTime="3.00" waitingCount="1" stopTime="0.00" timeLoss="16.50" rerouteNo="0" devices="tripinfo_SN_119" vType="car" speedFactor="1.17" vaporized=""/>
    <tripinfo id="WE_79" depart="79.00" departLane="1i_0" departPos="10.10" departSpeed="0.00" departDelay="0.00" arrival="200.00" arrivalLane="2o_0" arrivalPos="492.80" arrivalSpeed="10.48" duration="121.00" routeLength="989.90" waitingTime="9.00" waitingCount="5" stopTime="0.00" timeLoss="49.23" rerouteNo="0" devices="tripinfo_WE_79" vType="truck" speedFactor="0.99" vaporized=""/>
    <tripinfo id="EW_129" depart="129.00" departLane="4i_0" departPos="4.10" departSpeed="0.00" departDelay="0.00" arrival="210.00" arrivalLane="3o_0" arrivalPos="492.80" arrivalSpeed="10.07" duration="81.00" routeLength="995.90" waitingTime="0.00" waitingCount="0" stopTime="0.00" timeLoss="9.92" rerouteNo="0" devices="tripinfo_EW_129" vType="car" speedFactor="1.00" vaporized=""/>
    <tripinfo id="WE_102" depart="102.00" departLane="1i_0" departPos="4.10" departSpeed="0.00" departDelay="0.00" arrival="212.00" arrivalLane="2o_0" arrivalPos="492.80" arrivalSpeed="9.47" duration="110.00" routeLength="995.90" waitingTime="3.00" waitingCount="3" stopTime="0.00" timeLoss="30.79" rerouteNo="0" devices="tripinfo_WE_102" vType="car" speedFactor="0.90" vaporized=""/>
    <tripinfo id="SN_121" depart="123.00" departLane="3i_0" departPos="10.10" departSpeed="0.00" departDelay="2.00" arrival="214.00" arrivalLane="1o_0" arrivalPos="492.80" arrivalSpeed="11.35" duration="91.00" routeLength="989.70" waitingTime="0.00" waitingCount="0" stopTime="0.00" timeLoss="22.77" rerouteNo="0" devices="tripinfo_SN_121" vType="truck" speedFactor="1.05" vaporized=""/>
    <tripinfo id="WE_109" depart="110.00" departLane="1i_0" departPos="4.10" departSpeed="0.00" departDelay="1.00" arrival="215.00" arrivalLane="2o_0" arrivalPos="492.80" arrivalSpeed="8.47" duration="105.00" routeLength="995.90" waitingTime="2.00" waitingCount="2" stopTime="0.00" timeLoss="24.25" rerouteNo="0" devices="tripinfo_WE_109" vType="car" speedFactor="0.88" vaporized=""/>
    <tripinfo id="NS_115" depart="115.00" departLane="2i_0" departPos="4.10" departSpeed="0.00" departDelay="0.00" arrival="215.00" arrivalLane="4o_0" arrivalPos="492.80" arrivalSpeed="8.89" duration="100.00" routeLength="990.53" waitingTime="4.00" waitingCount="2" stopTime="0.00" timeLoss="17.36" rerouteNo="0" devices="tripinfo_NS_115" vType="car" speedFactor="0.85" vaporized=""/>
    <tripinfo id="WE_129" depart="130.00" departLane="1i_0" departPos="4.10" departSpeed="0.00" departDelay="1.00" arrival="217.00" arrivalLane="4o_0" arrivalPos="492.80" arrivalSpeed="10.36" duration="87.00" routeLength="995.70" waitingTime="0.00" waitingCount="0" stopTime="0.00" timeLoss="16.09" rerouteNo="0" devices="tripinfo_WE_129" vType="car" speedFactor="1.00" vaporized=""/>
    <tripinfo id="NS_120" depart="121.00" departLane="2i_0" departPos="4.10" departSpeed="0.00" departDelay="1.00" arrival="222.00" arrivalLane="4o_0" arrivalPos="492.80" arrivalSpeed="10.11" duration="101.00" routeLength="990.53" waitingTime="6.00" waitingCount="3" stopTime="0.00" timeLoss="31.74" rerouteNo="0" devices="tripinfo_NS_120" vType="car" speedFactor="1.02" vaporized=""/>
    <tripinfo id="SN_145" depart="150.00" departLane="3i_0" departPos="4.10" departSpeed="0.00" departDelay="5.00" arrival="224.00" arrivalLane="2o_0" arrivalPos="492.80" arrivalSpeed="11.66" duration="74.00" routeLength="990.53" waitingTime="1.00" waitingCount="1" stopTime="0.00" timeLoss="10.95" rerouteNo="0" devices="tripinfo_SN_145" vType="car" speedFactor="1.12" vaporized=""/>
    <tripinfo id="WE_142" depart="142.00" departLane="1i_0" departPos="4.10" departSpeed="0.00" departDelay="0.00" arrival="226.00" arrivalLane="3o_0" arrivalPos="492.80" arrivalSpeed="10.33" duration="84.00" routeLength="990.53" waitingTime="1.00" waitingCount="1" stopTime="0.00" timeLoss="10.84" rerouteNo="0" devices="tripinfo_WE_142" vType="car" speedFactor="0.97" vaporized=""/>
    <tripinfo id="NS_118" depart="118.00" departLane="2i_0" departPos="4.10" departSpeed="0.00" departDelay="0.00" arrival="228.00" arrivalLane="1o_0" arrivalPos="492.80" arrivalSpeed="8.95" duration="110.00" routeLength="995.90" waitingTime="7.00" waitingCount="3" stopTime="0.00" timeLoss="26.76" rerouteNo="0" devices="tripinfo_NS_118" vType="car" speedFactor="0.85" vaporized=""/>
    <tripinfo id="WE_145" depart="145.00" departLane="1i_0" departPos="4.10" departSpeed="0.00" departDelay="0.00" arrival="228.00" arrivalLane="4o_0" arrivalPos="492.80" arrivalSpeed="10.74" duration="83.00" routeLength="995.70" waitingTime="0.00" waitingCount="0" stopTime="0.00" timeLoss="17.63" rerouteNo="0" devices="tripinfo_WE_145" vType="car" speedFactor="1.08" vaporized=""/>
    <tripinfo id="NS_133" depart="135.00" departLane="2i_0" departPos="4.10" departSpeed="0.00" departDelay="2.00" arrival="229.00" arrivalLane="1o_0" arrivalPos="492.80" arrivalSpeed="11.47" duration="94.00" routeLength="995.90" waitingTime="3.00" waitingCount="3" stopTime="0.00" timeLoss="32.16" rerouteNo="0" devices="tripinfo_NS_133" vType="car" speedFactor="1.14" vaporized=""/>
    <tripinfo id="NS_132" depart="132.00" departLane="2i_0" departPos="4.10" departSpeed="0.00" departDelay="0.00" arrival="235.00" arrivalLane="3o_0" arrivalPos="492.80" arrivalSpeed="9.87" duration="103.00" routeLength="995.70" waitingTime="3.00" waitingCount="2" stopTime="0.00" timeLoss="23.72" rerouteNo="0" devices="tripinfo_NS_132" vType="car" speedFactor="0.90" vaporized=""/>
    <tripinfo id="EW_156" depart="156.00" departLane="4i_0" departPos="4.10" departSpeed="0.00" departDelay="0.00" arrival="237.00" arrivalLane="2o_0" arrivalPos="492.80" arrivalSpeed="10.56" duration="81.00" routeLength="995.70" waitingTime="0.00" waitingCount="0" stopTime="0.00" timeLoss="9.12" rerouteNo="0" devices="tripinfo_EW_156" vType="car" speedFactor="0.99" vaporized=""/>
    <tripinfo id="NS_138" depart="138.00" departLane="2i_0" departPos="4.10" departSpeed="0.00" departDelay="0.00" arrival="238.00" arrivalLane="4o_0" arrivalPos="492.80" arrivalSpeed="10.43" duration="100.00" routeLength="990.53" waitingTime="2.00" waitingCount="2" stopTime="0.00" timeLoss="30.80" rerouteNo="0" devices="tripinfo_NS_138" vType="car" speedFactor="1.02" vaporized=""/>
    <tripinfo id="NS_147" depart="147.00" departLane="2i_0" departPos="4.10" departSpeed="0.00" departDelay="0.00" arrival="244.00" arrivalLane="4o_0" arrivalPos="492.80" arrivalSpeed="11.05" duration="97.00" routeLength="990.53" waitingTime="1.00" waitingCount="1" stopTime="0.00" timeLoss="27.78" rerouteNo="0" devices="tripinfo_NS_147" vType="car" speedFactor="1.02" vaporized=""/>
    <tripinfo id="EW_158" depart="158.00" departLane="4i_0" departPos="4.10" departSpeed="0.00" departDelay="0.00" arrival="248.00" arrivalLane="2o_0" arrivalPos="492.80" arrivalSpeed="10.19" duration="90.00" routeLength="995.70" waitingTime="0.00" waitingCount="0" stopTime="0.00" timeLoss="14.04" rerouteNo="0" devices="tripinfo_EW_158" vType="car" speedFactor="0.94" vaporized=""/>
    <tripinfo id="WE_171" depart="171.00" departLane="1i_0" departPos="4.10" departSpeed="0.00" departDelay="0.00" arrival="252.00" arrivalLane="3o_0" arrivalPos="492.80" arrivalSpeed="11.21" duration="81.00" routeLength="990.53" waitingTime="0.00" waitingCount="0" stopTime="0.00" timeLoss="11.54" rerouteNo="0" devices="tripinfo_WE_171" vType="car" speedFactor="1.02" vaporized=""/>
    <tripinfo id="SN_161" depart="161.00" departLane="3i_0" departPos="4.10" departSpeed="0.00" departDelay="0.00" arrival="254.00" arrivalLane="2o_0" arrivalPos="492.80" arrivalSpeed="9.16" duration="93.00" routeLength="990.53" waitingTime="3.00" waitingCount="1" stopTime="0.00" timeLoss="13.07" rerouteNo="0" devices="tripinfo_SN_161" vType="car" speedFactor="0.88" vaporized=""/>
    <tripinfo id="SN_164" depart="164.00" departLane="3i_0" departPos="10.10" departSpeed="0.00" departDelay="0.00" arrival="254.00" arrivalLane="1o_0" arrivalPos="492.80" arrivalSpeed="10.02" duration="90.00" routeLength="989.70" waitingTime="0.00" waitingCount="0" stopTime="0.00" timeLoss="15.48" rerouteNo="0" devices="tripinfo_SN_164" vType="truck" speedFactor="0.95" vaporized=""/>
    <tripinfo id="NS_168" depart="168.00" departLane="2i_0" departPos="4.10" departSpeed="0.00" departDelay="0.00" arrival="258.00" arrivalLane="4o_0" arrivalPos="492.80" arrivalSpeed="10.12" duration="90.00" routeLength="990.53" waitingTime="0.00" waitingCount="0" stopTime="0.00" timeLoss="13.25" rerouteNo="0" devices="tripinfo_NS_168" vType="car" speedFactor="0.91" vaporized=""/>
    <tripinfo id="NS_170" depart="171.00" departLane="2i_0" departPos="4.10" departSpeed="0.00" departDelay="1.00" arrival="258.00" arrivalLane="3o_0" arrivalPos="492.80" arrivalSpeed="10.65" duration="87.00" routeLength="995.70" waitingTime="1.00" waitingCount="1" stopTime="0.00" timeLoss="18.95" rerouteNo="0" devices="tripinfo_NS_170" vType="car" speedFactor="1.04" vaporized=""/>
    <tripinfo id="EW_175" depart="175.00" departLane="4i_0" departPos="4.10" departSpeed="0.00" departDelay="0.00" arrival="258.00" arrivalLane="2o_0" arrivalPos="492.80" arrivalSpeed="10.39" duration="83.00" routeLength="995.70" waitingTime="0.00" waitingCount="0" stopTime="0.00" timeLoss="9.69" rerouteNo="0" devices="tripinfo_EW_175" vType="car" speedFactor="0.97" vaporized=""/>
    <tripinfo id="NS_173" depart="174.00" departLane="2i_0" departPos="4.10" departSpeed="0.00" departDelay="1.00" arrival="262.00" arrivalLane="4o_0" arrivalPos="492.80" arrivalSpeed="10.26" duration="88.00" routeLength="990.53" waitingTime="1.00" waitingCount="1" stopTime="0.00" timeLoss="19.31" rerouteNo="0" devices="tripinfo_NS_173" vType="car" speedFactor="1.02" vaporized=""/>
    <tripinfo id="WE_177" depart="177.00" departLane="1i_0" departPos="4.10" departSpeed="0.00" departDelay="0.00" arrival="269.00" arrivalLane="4o_0" arrivalPos="492.80" arrivalSpeed="9.22" duration="92.00" routeLength="995.70" waitingTime="2.00" waitingCount="1" stopTime="0.00" timeLoss="16.26" rerouteNo="0" devices="tripinfo_WE_177" vType="car" speedFactor="0.94" vaporized=""/>
    <tripinfo id="WE_186" depart="186.00" departLane="1i_0" departPos="4.10" departSpeed="0.00" departDelay="0.00" arrival="273.00" arrivalLane="3o_0" arrivalPos="492.80" arrivalSpeed="10.49" duration="87.00" routeLength="990.53" waitingTime="6.00" waitingCount="1" stopTime="0.00" timeLoss="19.81" rerouteNo="0" devices="tripinfo_WE_186" vType="car" speedFactor="1.06" vaporized=""/>
    <tripinfo id="WE_191" depart="191.00" departLane="1i_0" departPos="10.10" departSpeed="0.00" departDelay="0.00" arrival="279.00" arrivalLane="2o_0" arrivalPos="492.80" arrivalSpeed="10.52" duration="88.00" routeLength="989.90" waitingTime="0.00" waitingCount="0" stopTime="0.00" timeLoss="15.70" rerouteNo="0" devices="tripinfo_WE_191" vType="truck" speedFactor="0.98" vaporized=""/>
    <tripinfo id="NS_196" depart="196.00" departLane="2i_0" departPos="4.10" departSpeed="0.00" departDelay="0.00" arrival="279.00" arrivalLane="1o_0" arrivalPos="492.80" arrivalSpeed="10.91" duration="83.00" routeLength="995.90" waitingTime="1.00" waitingCount="1" stopTime="0.00" timeLoss="13.86" rerouteNo="0" devices="tripinfo_NS_196" vType="car" speedFactor="1.03" vaporized=""/>