<?xml version="1.0" encoding="UTF-8"?>

<!-- generated on 2024-05-04 20:40:54 by Eclipse SUMO sumo Version 1.19.0
<configuration xmlns:xsi="http://www.w3.org/2001/XMLSchema-instance" xsi:noNamespaceSchemaLocation="http://sumo.dlr.de/xsd/sumoConfiguration.xsd">

    <input>
        <net-file value="test5.net.xml"/>
        <route-files value="route_gen.rou.xml"/>
    </input>

    <output>
        <tripinfo-output value="tripinfo_epi853.xml"/>
    </output>

    <report>
        <no-warnings value="true"/>
    </report>

    <traci_server>
        <remote-port value="52133"/>
    </traci_server>

</configuration>
-->

<tripinfos xmlns:xsi="http://www.w3.org/2001/XMLSchema-instance" xsi:noNamespaceSchemaLocation="http://sumo.dlr.de/xsd/tripinfo_file.xsd">
    <tripinfo id="EW_1" depart="1.00" departLane="4i_0" departPos="4.10" departSpeed="0.00" departDelay="0.00" arrival="77.00" arrivalLane="1o_0" arrivalPos="492.80" arrivalSpeed="10.87" duration="76.00" routeLength="990.53" waitingTime="0.00" waitingCount="0" stopTime="0.00" timeLoss="8.80" rerouteNo="0" devices="tripinfo_EW_1" vType="car" speedFactor="1.06" vaporized=""/>
    <tripinfo id="SN_13" depart="13.00" departLane="3i_0" departPos="4.10" departSpeed="0.00" departDelay="0.00" arrival="89.00" arrivalLane="2o_0" arrivalPos="492.80" arrivalSpeed="11.67" duration="76.00" routeLength="990.53" waitingTime="2.00" waitingCount="1" stopTime="0.00" timeLoss="11.00" rerouteNo="0" devices="tripinfo_SN_13" vType="car" speedFactor="1.08" vaporized=""/>
    <tripinfo id="NS_8" depart="8.00" departLane="2i_0" departPos="4.10" departSpeed="0.00" departDelay="0.00" arrival="94.00" arrivalLane="3o_0" arrivalPos="492.80" arrivalSpeed="9.36" duration="86.00" routeLength="995.70" waitingTime="0.00" waitingCount="0" stopTime="0.00" timeLoss="10.59" rerouteNo="0" devices="tripinfo_NS_8" vType="car" speedFactor="0.94" vaporized=""/>
    <tripinfo id="NS_15" depart="15.00" departLane="2i_0" departPos="4.10" departSpeed="0.00" departDelay="0.00" arrival="95.00" arrivalLane="1o_0" arrivalPos="492.80" arrivalSpeed="11.23" duration="80.00" routeLength="995.90" waitingTime="0.00" waitingCount="0" stopTime="0.00" timeLoss="11.32" rerouteNo="0" devices="tripinfo_NS_15" vType="car" speedFactor="1.03" vaporized=""/>
    <tripinfo id="EW_12" depart="12.00" departLane="4i_0" departPos="4.10" departSpeed="0.00" departDelay="0.00" arrival="96.00" arrivalLane="2o_0" arrivalPos="492.80" arrivalSpeed="10.72" duration="84.00" routeLength="995.70" waitingTime="0.00" waitingCount="0" stopTime="0.00" timeLoss="13.64" rerouteNo="0" devices="tripinfo_EW_12" vType="car" speedFactor="1.01" vaporized=""/>
    <tripinfo id="EW_19" depart="19.00" departLane="4i_0" departPos="4.10" departSpeed="0.00" departDelay="0.00" arrival="96.00" arrivalLane="3o_0" arrivalPos="492.80" arrivalSpeed="10.61" duration="77.00" routeLength="995.90" waitingTime="0.00" waitingCount="0" stopTime="0.00" timeLoss="9.26" rerouteNo="0" devices="tripinfo_EW_19" vType="car" speedFactor="1.05" vaporized=""/>
    <tripinfo id="SN_28" depart="28.00" departLane="3i_0" departPos="4.10" departSpeed="0.00" departDelay="0.00" arrival="101.00" arrivalLane="2o_0" arrivalPos="492.80" arrivalSpeed="11.11" duration="73.00" routeLength="990.53" waitingTime="0.00" waitingCount="0" stopTime="0.00" timeLoss="7.82" rerouteNo="0" devices="tripinfo_SN_28" vType="car" speedFactor="1.09" vaporized=""/>
    <tripinfo id="NS_29" depart="29.00" departLane="2i_0" departPos="4.10" departSpeed="0.00" departDelay="0.00" arrival="108.00" arrivalLane="3o_0" arrivalPos="492.80" arrivalSpeed="10.32" duration="79.00" routeLength="995.70" waitingTime="0.00" waitingCount="0" stopTime="0.00" timeLoss="9.37" rerouteNo="0" devices="tripinfo_NS_29" vType="car" speedFactor="1.03" vaporized=""/>
    <tripinfo id="WE_17" depart="17.00" departLane="1i_0" departPos="10.10" departSpeed="0.00" departDelay="0.00" arrival="111.00" arrivalLane="4o_0" arrivalPos="492.80" arrivalSpeed="9.60" duration="94.00" routeLength="989.70" waitingTime="0.00" waitingCount="0" stopTime="0.00" timeLoss="16.35" rerouteNo="0" devices="tripinfo_WE_17" vType="truck" speedFactor="0.92" vaporized=""/>
    <tripinfo id="EW_24" depart="24.00" departLane="4i_0" departPos="4.10" departSpeed="0.00" departDelay="0.00" arrival="112.00" arrivalLane="1o_0" arrivalPos="492.80" arrivalSpeed="9.72" duration="88.00" routeLength="990.53" waitingTime="0.00" waitingCount="0" stopTime="0.00" timeLoss="8.71" rerouteNo="0" devices="tripinfo_EW_24" vType="car" speedFactor="0.89" vaporized=""/>
    <tripinfo id="NS_30" depart="32.00" departLane="2i_0" departPos="4.10" departSpeed="0.00" departDelay="2.00" arrival="113.00" arrivalLane="4o_0" arrivalPos="492.80" arrivalSpeed="11.22" duration="81.00" routeLength="990.53" waitingTime="0.00" waitingCount="0" stopTime="0.00" timeLoss="17.57" rerouteNo="0" devices="tripinfo_NS_30" vType="car" speedFactor="1.12" vaporized=""/>
    <tripinfo id="EW_26" depart="27.00" departLane="4i_0" departPos="4.10" departSpeed="0.00" departDelay="1.00" arrival="116.00" arrivalLane="3o_0" arrivalPos="492.80" arrivalSpeed="9.41" duration="89.00" routeLength="995.90" waitingTime="1.00" waitingCount="1" stopTime="0.00" timeLoss="13.62" rerouteNo="0" devices="tripinfo_EW_26" vType="car" speedFactor="0.94" vaporized=""/>
    <tripinfo id="WE_32" depart="32.00" departLane="1i_0" departPos="4.10" departSpeed="0.00" departDelay="0.00" arrival="118.00" arrivalLane="2o_0" arrivalPos="492.80" arrivalSpeed="10.30" duration="86.00" routeLength="995.90" waitingTime="0.00" waitingCount="0" stopTime="0.00" timeLoss="14.79" rerouteNo="0" devices="tripinfo_WE_32" vType="car" speedFactor="0.99" vaporized=""/>
    <tripinfo id="EW_30" depart="30.00" departLane="4i_0" departPos="4.10" departSpeed="0.00" departDelay="0.00" arrival="119.00" arrivalLane="1o_0" arrivalPos="492.80" arrivalSpeed="11.41" duration="89.00" routeLength="990.53" waitingTime="3.00" waitingCount="1" stopTime="0.00" timeLoss="21.22" rerouteNo="0" devices="tripinfo_EW_30" vType="car" speedFactor="1.05" vaporized=""/>
    <tripinfo id="WE_28" depart="28.00" departLane="1i_0" departPos="4.10" departSpeed="0.00" departDelay="0.00" arrival="124.00" arrivalLane="3o_0" arrivalPos="492.80" arrivalSpeed="9.47" duration="96.00" routeLength="990.53" waitingTime="0.00" waitingCount="0" stopTime="0.00" timeLoss="13.53" rerouteNo="0" devices="tripinfo_WE_28" vType="car" speedFactor="0.86" vaporized=""/>
    <tripinfo id="SN_41" depart="41.00" departLane="3i_0" departPos="4.10" departSpeed="0.00" departDelay="0.00" arrival="131.00" arrivalLane="1o_0" arrivalPos="492.80" arrivalSpeed="9.23" duration="90.00" routeLength="995.70" waitingTime="2.00" waitingCount="1" stopTime="0.00" timeLoss="13.25" rerouteNo="0" devices="tripinfo_SN_41" vType="car" speedFactor="0.93" vaporized=""/>
    <tripinfo id="NS_51" depart="51.00" departLane="2i_0" departPos="4.10" departSpeed="0.00" departDelay="0.00" arrival="138.00" arrivalLane="1o_0" arrivalPos="492.80" arrivalSpeed="10.41" duration="87.00" routeLength="995.90" waitingTime="1.00" waitingCount="1" stopTime="0.00" timeLoss="11.27" rerouteNo="0" devices="tripinfo_NS_51" vType="car" speedFactor="0.94" vaporized=""/>
    <tripinfo id="NS_57" depart="57.00" departLane="2i_0" departPos="4.10" departSpeed="0.00" departDelay="0.00" arrival="139.00" arrivalLane="1o_0" arrivalPos="492.80" arrivalSpeed="12.56" duration="82.00" routeLength="995.90" waitingTime="0.00" waitingCount="0" stopTime="0.00" timeLoss="21.15" rerouteNo="0" devices="tripinfo_NS_57" vType="car" speedFactor="1.16" vaporized=""/>
    <tripinfo id="NS_61" depart="61.00" departLane="2i_0" departPos="4.10" departSpeed="0.00" departDelay="0.00" arrival="140.00" arrivalLane="4o_0" arrivalPos="492.80" arrivalSpeed="10.89" duration="79.00" routeLength="990.53" waitingTime="0.00" waitingCount="0" stopTime="0.00" timeLoss="8.86" rerouteNo="0" devices="tripinfo_NS_61" vType="car" speedFactor="1.02" vaporized=""/>
    <tripinfo id="SN_64" depart="64.00" departLane="3i_0" departPos="4.10" departSpeed="0.00" departDelay="0.00" arrival="145.00" arrivalLane="2o_0" arrivalPos="492.80" arrivalSpeed="10.77" duration="81.00" routeLength="990.53" waitingTime="0.00" waitingCount="0" stopTime="0.00" timeLoss="8.90" rerouteNo="0" devices="tripinfo_SN_64" vType="car" speedFactor="0.97" vaporized=""/>
    <tripinfo id="EW_50" depart="50.00" departLane="4i_0" departPos="4.10" departSpeed="0.00" departDelay="0.00" arrival="148.00" arrivalLane="3o_0" arrivalPos="492.80" arrivalSpeed="8.90" duration="98.00" routeLength="995.90" waitingTime="4.00" waitingCount="1" stopTime="0.00" timeLoss="16.99" rerouteNo="0" devices="tripinfo_EW_50" vType="car" speedFactor="0.88" vaporized=""/>
    <tripinfo id="EW_55" depart="55.00" departLane="4i_0" departPos="4.10" departSpeed="0.00" departDelay="0.00" arrival="150.00" arrivalLane="2o_0" arrivalPos="492.80" arrivalSpeed="9.49" duration="95.00" routeLength="995.70" waitingTime="1.00" waitingCount="1" stopTime="0.00" timeLoss="19.19" rerouteNo="0" devices="tripinfo_EW_55" vType="car" speedFactor="0.94" vaporized=""/>
    <tripinfo id="EW_62" depart="62.00" departLane="4i_0" departPos="4.10" departSpeed="0.00" departDelay="0.00" arrival="151.00" arrivalLane="3o_0" arrivalPos="492.80" arrivalSpeed="10.21" duration="89.00" routeLength="995.90" waitingTime="2.00" waitingCount="1" stopTime="0.00" timeLoss="18.96" rerouteNo="0" devices="tripinfo_EW_62" vType="car" speedFactor="1.01" vaporized=""/>
    <tripinfo id="SN_68" depart="68.00" departLane="3i_0" departPos="4.10" departSpeed="0.00" departDelay="0.00" arrival="156.00" arrivalLane="4o_0" arrivalPos="492.80" arrivalSpeed="9.50" duration="88.00" routeLength="995.90" waitingTime="0.00" waitingCount="0" stopTime="0.00" timeLoss="8.27" rerouteNo="0" devices="tripinfo_SN_68" vType="car" speedFactor="0.89" vaporized=""/>
    <tripinfo id="SN_72" depart="72.00" departLane="3i_0" departPos="4.10" departSpeed="0.00" departDelay="0.00" arrival="170.00" arrivalLane="4o_0" arrivalPos="492.80" arrivalSpeed="8.53" duration="98.00" routeLength="995.90" waitingTime="0.00" waitingCount="0" stopTime="0.00" timeLoss="12.04" rerouteNo="0" devices="tripinfo_SN_72" vType="car" speedFactor="0.83" vaporized=""/>
    <tripinfo id="EW_73" depart="73.00" departLane="4i_0" departPos="4.10" departSpeed="0.00" departDelay="0.00" arrival="170.00" arrivalLane="2o_0" arrivalPos="492.80" arrivalSpeed="9.66" duration="97.00" routeLength="995.70" waitingTime="0.00" waitingCount="0" stopTime="0.00" timeLoss="15.36" rerouteNo="0" devices="tripinfo_EW_73" vType="car" speedFactor="0.87" vaporized=""/>
    <tripinfo id="WE_76" depart="77.00" departLane="1i_0" departPos="4.10" departSpeed="0.00" departDelay="1.00" arrival="172.00" arrivalLane="2o_0" arrivalPos="492.80" arrivalSpeed="9.80" duration="95.00" routeLength="995.90" waitingTime="5.00" waitingCount="1" stopTime="0.00" timeLoss="16.94" rerouteNo="0" devices="tripinfo_WE_76" vType="car" speedFactor="0.92" vaporized=""/>
    <tripinfo id="WE_78" depart="80.00" departLane="1i_0" departPos="4.10" departSpeed="0.00" departDelay="2.00" arrival="172.00" arrivalLane="3o_0" arrivalPos="492.80" arrivalSpeed="10.01" duration="92.00" routeLength="990.53" waitingTime="3.00" waitingCount="2" stopTime="0.00" timeLoss="17.97" rerouteNo="0" devices="tripinfo_WE_78" vType="car" speedFactor="0.95" vaporized=""/>
    <tripinfo id="WE_80" depart="83.00" departLane="1i_0" departPos="4.10" departSpeed="0.00" departDelay="3.00" arrival="172.00" arrivalLane="4o_0" arrivalPos="492.80" arrivalSpeed="12.35" duration="89.00" routeLength="995.70" waitingTime="3.00" waitingCount="2" stopTime="0.00" timeLoss="25.87" rerouteNo="0" devices="tripinfo_WE_80" vType="car" speedFactor="1.13" vaporized=""/>
    <tripinfo id="EW_90" depart="90.00" departLane="4i_0" departPos="10.10" departSpeed="0.00" departDelay="0.00" arrival="178.00" arrivalLane="2o_0" arrivalPos="492.80" arrivalSpeed="12.05" duration="88.00" routeLength="989.70" waitingTime="0.00" waitingCount="0" stopTime="0.00" timeLoss="21.70" rerouteNo="0" devices="tripinfo_EW_90" vType="truck" speedFactor="1.09" vaporized=""/>
    <tripinfo id="NS_102" depart="102.00" departLane="2i_0" departPos="10.10" departSpeed="0.00" departDelay="0.00" arrival="181.00" arrivalLane="1o_0" arrivalPos="492.80" arrivalSpeed="11.40" duration="79.00" routeLength="989.90" waitingTime="0.00" waitingCount="0" stopTime="0.00" timeLoss="11.88" rerouteNo="0" devices="tripinfo_NS_102" vType="truck" speedFactor="1.08" vaporized=""/>
    <tripinfo id="EW_105" depart="105.00" departLane="4i_0" departPos="4.10" departSpeed="0.00" departDelay="0.00" arrival="183.00" arrivalLane="1o_0" arrivalPos="492.80" arrivalSpeed="12.07" duration="78.00" routeLength="990.53" waitingTime="2.00" waitingCount="1" stopTime="0.00" timeLoss="17.56" rerouteNo="0" devices="tripinfo_EW_105" vType="car" speedFactor="1.17" vaporized=""/>
    <tripinfo id="SN_112" depart="112.00" departLane="3i_0" departPos="4.10" departSpeed="0.00" departDelay="0.00" arrival="185.00" arrivalLane="4o_0" arrivalPos="492.80" arrivalSpeed="12.12" duration="73.00" routeLength="995.90" waitingTime="0.00" waitingCount="0" stopTime="0.00" timeLoss="12.69" rerouteNo="0" devices="tripinfo_SN_112" vType="car" speedFactor="1.18" vaporized=""/>
    <tripinfo id="WE_83" depart="85.00" departLane="1i_0" departPos="4.10" departSpeed="0.00" departDelay="2.00" arrival="189.00" arrivalLane="2o_0" arrivalPos="492.80" arrivalSpeed="9.84" duration="104.00" routeLength="995.90" waitingTime="3.00" waitingCount="3" stopTime="0.00" timeLoss="27.42" rerouteNo="0" devices="tripinfo_WE_83" vType="car" speedFactor="0.93" vaporized=""/>
    <tripinfo id="WE_104" depart="104.00" departLane="1i_0" departPos="10.10" departSpeed="0.00" departDelay="0.00" arrival="190.00" arrivalLane="3o_0" arrivalPos="492.80" arrivalSpeed="10.70" duration="86.00" routeLength="984.53" waitingTime="0.00" waitingCount="0" stopTime="0.00" timeLoss="15.70" rerouteNo="0" devices="tripinfo_WE_104" vType="truck" speedFactor="1.00" vaporized=""/>
    <tripinfo id="SN_109" depart="109.00" departLane="3i_0" departPos="4.10" departSpeed="0.00" departDelay="0.00" arrival="192.00" arrivalLane="1o_0" arrivalPos="492.80" arrivalSpeed="9.80" duration="83.00" routeLength="995.70" waitingTime="0.00" waitingCount="0" stopTime="0.00" timeLoss="10.45" rerouteNo="0" devices="tripinfo_SN_109" vType="car" speedFactor="0.97" vaporized=""/>
    <tripinfo id="WE_107" depart="108.00" departLane="1i_0" departPos="4.10" departSpeed="0.00" departDelay="1.00" arrival="194.00" arrivalLane="3o_0" arrivalPos="492.80" arrivalSpeed="10.48" duration="86.00" routeLength="990.53" waitingTime="0.00" waitingCount="0" stopTime="0.00" timeLoss="14.65" rerouteNo="0" devices="tripinfo_WE_107" vType="car" speedFactor="0.99" vaporized=""/>
    <tripinfo id="NS_108" depart="108.00" departLane="2i_0" departPos="4.10" departSpeed="0.00" departDelay="0.00" arrival="196.00" arrivalLane="3o_0" arrivalPos="492.80" arrivalSpeed="11.16" duration="88.00" routeLength="995.70" waitingTime="2.00" waitingCount="1" stopTime="0.00" timeLoss="18.25" rerouteNo="0" devices="tripinfo_NS_108" vType="car" speedFactor="1.02" vaporized=""/>
    <tripinfo id="SN_121" depart="121.00" departLane="3i_0" departPos="4.10" departSpeed="0.00" departDelay="0.00" arrival="197.00" arrivalLane="4o_0" arrivalPos="492.80" arrivalSpeed="11.52" duration="76.00" routeLength="995.90" waitingTime="1.00" waitingCount="1" stopTime="0.00" timeLoss="12.03" rerouteNo="0" devices="tripinfo_SN_121" vType="car" speedFactor="1.10" vaporized=""/>
    <tripinfo id="EW_125" depart="127.00" departLane="4i_0" departPos="4.10" departSpeed="0.00" departDelay="2.00" arrival="208.00" arrivalLane="2o_0" arrivalPos="492.80" arrivalSpeed="11.28" duration="81.00" routeLength="995.70" waitingTime="0.00" waitingCount="0" stopTime="0.00" timeLoss="11.62" rerouteNo="0" devices="tripinfo_EW_125" vType="car" speedFactor="1.03" vaporized=""/>
    <tripinfo id="NS_125" depart="125.00" departLane="2i_0" departPos="4.10" departSpeed="0.00" departDelay="0.00" arrival="208.00" arrivalLane="4o_0" arrivalPos="492.80" arrivalSpeed="10.42" duration="83.00" routeLength="990.53" waitingTime="0.00" waitingCount="0" stopTime="0.00" timeLoss="9.33" rerouteNo="0" devices="tripinfo_NS_125" vType="car" speedFactor="0.96" vaporized=""/>
    <tripinfo id="NS_132" depart="132.00" departLane="2i_0" departPos="4.10" departSpeed="0.00" departDelay="0.00" arrival="209.00" arrivalLane="1o_0" arrivalPos="492.80" arrivalSpeed="11.22" duration="77.00" routeLength="995.90" waitingTime="0.00" waitingCount="0" stopTime="0.00" timeLoss="8.84" rerouteNo="0" devices="tripinfo_NS_132" vType="car" speedFactor="1.04" vaporized=""/>
    <tripinfo id="NS_129" depart="129.00" departLane="2i_0" departPos="4.10" departSpeed="0.00" departDelay="0.00" arrival="210.00" arrivalLane="4o_0" arrivalPos="492.80" arrivalSpeed="10.71" duration="81.00" routeLength="990.53" waitingTime="0.00" waitingCount="0" stopTime="0.00" timeLoss="13.02" rerouteNo="0" devices="tripinfo_NS_129" vType="car" speedFactor="1.04" vaporized=""/>
    <tripinfo id="EW_124" depart="124.00" departLane="4i_0" departPos="4.10" departSpeed="0.00" departDelay="0.00" arrival="211.00" arrivalLane="3o_0" arrivalPos="492.80" arrivalSpeed="9.04" duration="87.00" routeLength="995.90" waitingTime="0.00" waitingCount="0" stopTime="0.00" timeLoss="7.75" rerouteNo="0" devices="tripinfo_EW_124" vType="car" speedFactor="0.90" vaporized=""/>
    <tripinfo id="EW_128" depart="131.00" departLane="4i_0" departPos="10.10" departSpeed="0.00" departDelay="3.00" arrival="213.00" arrivalLane="3o_0" arrivalPos="492.80" arrivalSpeed="11.21" duration="82.00" routeLength="989.90" waitingTime="0.00" waitingCount="0" stopTime="0.00" timeLoss="14.08" rerouteNo="0" devices="tripinfo_EW_128" vType="truck" speedFactor="1.05" vaporized=""/>
    <tripinfo id="EW_134" depart="135.00" departLane="4i_0" departPos="4.10" departSpeed="0.00" departDelay="1.00" arrival="219.00" arrivalLane="3o_0" arrivalPos="492.80" arrivalSpeed="11.13" duration="84.00" routeLength="995.90" waitingTime="3.00" waitingCount="1" stopTime="0.00" timeLoss="18.97" rerouteNo="0" devices="tripinfo_EW_134" vType="car" speedFactor="1.09" vaporized=""/>
    <tripinfo id="SN_134" depart="134.00" departLane="3i_0" departPos="10.10" departSpeed="0.00" departDelay="0.00" arrival="225.00" arrivalLane="2o_0" arrivalPos="492.80" arrivalSpeed="10.89" duration="91.00" routeLength="984.53" waitingTime="1.00" waitingCount="1" stopTime="0.00" timeLoss="20.11" rerouteNo="0" devices="tripinfo_SN_134" vType="truck" speedFactor="1.00" vaporized=""/>
    <tripinfo id="SN_135" depart="138.00" departLane="3i_0" departPos="4.10" departSpeed="0.00" departDelay="3.00" arrival="234.00" arrivalLane="4o_0" arrivalPos="492.80" arrivalSpeed="8.76" duration="96.00" routeLength="995.90" waitingTime="0.00" waitingCount="0" stopTime="0.00" timeLoss="16.86" rerouteNo="0" devices="tripinfo_SN_135" vType="car" speedFactor="0.90" vaporized=""/>
    <tripinfo id="WE_145" depart="145.00" departLane="1i_0" departPos="4.10" departSpeed="0.00" departDelay="0.00" arrival="235.00" arrivalLane="3o_0" arrivalPos="492.80" arrivalSpeed="8.56" duration="90.00" routeLength="990.53" waitingTime="0.00" waitingCount="0" stopTime="0.00" timeLoss="9.54" rerouteNo="0" devices="tripinfo_WE_145" vType="car" speedFactor="0.88" vaporized=""/>
    <tripinfo id="WE_154" depart="156.00" departLane="1i_0" departPos="4.10" departSpeed="0.00" departDelay="2.00" arrival="237.00" arrivalLane="3o_0" arrivalPos="492.80" arrivalSpeed="12.43" duration="81.00" routeLength="990.53" waitingTime="0.00" waitingCount="0" stopTime="0.00" timeLoss="20.37" rerouteNo="0" devices="tripinfo_WE_154" vType="car" speedFactor="1.17" vaporized=""/>
    <tripinfo id="NS_163" depart="163.00" departLane="2i_0" departPos="4.10" departSpeed="0.00" departDelay="0.00" arrival="241.00" arrivalLane="1o_0" arrivalPos="492.80" arrivalSpeed="10.88" duration="78.00" routeLength="995.90" waitingTime="0.00" waitingCount="0" stopTime="0.00" timeLoss="13.03" rerouteNo="0" devices="tripinfo_NS_163" vType="car" speedFactor="1.10" vaporized=""/>
    <tripinfo id="NS_150" depart="150.00" departLane="2i_0" departPos="4.10" departSpeed="0.00" departDelay="0.00" arrival="246.00" arrivalLane="4o_0" arrivalPos="492.80" arrivalSpeed="9.26" duration="96.00" routeLength="990.53" waitingTime="2.00" waitingCount="1" stopTime="0.00" timeLoss="12.34" rerouteNo="0" devices="tripinfo_NS_150" vType="car" speedFactor="0.85" vaporized=""/>
    <tripinfo id="WE_153" depart="153.00" departLane="1i_0" departPos="4.10" departSpeed="0.00" departDelay="0.00" arrival="249.00" arrivalLane="4o_0" arrivalPos="492.80" arrivalSpeed="8.28" duration="96.00" routeLength="995.70" waitingTime="0.00" waitingCount="0" stopTime="0.00" timeLoss="13.27" rerouteNo="0" devices="tripinfo_WE_153" vType="car" speedFactor="0.85" vaporized=""/>
    <tripinfo id="EW_167" depart="167.00" departLane="4i_0" departPos="4.10" departSpeed="0.00" departDelay="0.00" arrival="250.00" arrivalLane="2o_0" arrivalPos="492.80" arrivalSpeed="10.34" duration="83.00" routeLength="995.70" waitingTime="0.00" waitingCount="0" stopTime="0.00" timeLoss="11.96" rerouteNo="0" devices="tripinfo_EW_167" vType="car" speedFactor="1.00" vaporized=""/>
    <tripinfo id="SN_171" depart="172.00" departLane="3i_0" departPos="4.10" departSpeed="0.00" departDelay="1.00" arrival="250.00" arrivalLane="1o_0" arrivalPos="492.80" arrivalSpeed="12.55" duration="78.00" routeLength="995.70" waitingTime="2.00" waitingCount="1" stopTime="0.00" timeLoss="15.75" rerouteNo="0" devices="tripinfo_SN_171" vType="car" speedFactor="1.14" vaporized=""/>
    <tripinfo id="WE_158" depart="158.00" departLane="1i_0" departPos="4.10" departSpeed="0.00" departDelay="0.00" arrival="251.00" arrivalLane="4o_0" arrivalPos="492.80" arrivalSpeed="10.44" duration="93.00" routeLength="995.70" waitingTime="0.00" waitingCount="0" stopTime="0.00" timeLoss="23.16" rerouteNo="0" devices="tripinfo_WE_158" vType="car" speedFactor="1.02" vaporized=""/>
    <tripinfo id="WE_167" depart="167.00" departLane="1i_0" departPos="4.10" departSpeed="0.00" departDelay="0.00" arrival="252.00" arrivalLane="3o_0" arrivalPos="492.80" arrivalSpeed="11.06" duration="85.00" routeLength="990.53" waitingTime="1.00" waitingCount="1" stopTime="0.00" timeLoss="14.20" rerouteNo="0" devices="tripinfo_WE_167" vType="car" speedFactor="1.00" vaporized=""/>
    <tripinfo id="SN_172" depart="175.00" departLane="3i_0" departPos="4.10" departSpeed="0.00" departDelay="3.00" arrival="257.00" arrivalLane="2o_0" arrivalPos="492.80" arrivalSpeed="11.11" duration="82.00" routeLength="990.53" waitingTime="0.00" waitingCount="0" stopTime="0.00" timeLoss="12.77" rerouteNo="0" devices="tripinfo_SN_172" vType="car" speedFactor="1.02" vaporized=""/>
    <tripinfo id="WE_170" depart="170.00" departLane="1i_0" departPos="4.10" departSpeed="0.00" departDelay="0.00" arrival="261.00" arrivalLane="4o_0" arrivalPos="492.80" arrivalSpeed="9.47" duration="91.00" routeLength="995.70" waitingTime="0.00" waitingCount="0" stopTime="0.00" timeLoss="12.07" rerouteNo="0" devices="tripinfo_WE_170" vType="car" speedFactor="0.90" vaporized=""/>
    <tripinfo id="EW_175" depart="175.00" departLane="4i_0" departPos="4.10" departSpeed="0.00" departDelay="0.00" arrival="261.00" arrivalLane="3o_0" arrivalPos="492.80" arrivalSpeed="10.17" duration="86.00" routeLength="995.90" waitingTime="1.00" waitingCount="1" stopTime="0.00" timeLoss="12.52" rerouteNo="0" devices="tripinfo_EW_175" vType="car" speedFactor="0.97" vaporized=""/>
    <tripinfo id="EW_184" depart="185.00" departLane="4i_0" departPos="4.10" departSpeed="0.00" departDelay="1.00" arrival="263.00" arrivalLane="3o_0" arrivalPos="492.80" arrivalSpeed="11.03" duration="78.00" routeLength="995.90" waitingTime="0.00" waitingCount="0" stopTime="0.00" timeLoss="11.98" rerouteNo="0" devices="tripinfo_EW_184" vType="car" speedFactor="1.08" vaporized=""/>
    <tripinfo id="SN_186" depart="186.00" departLane="3i_0" departPos="10.10" departSpeed="0.00" departDelay="0.00" arrival="267.00" arrivalLane="2o_0" arrivalPos="492.80" arrivalSpeed="11.76" duration="81.00" routeLength="984.53" waitingTime="0.00" waitingCount="0" stopTime="0.00" timeLoss="14.05" rerouteNo="0" devices="tripinfo_SN_186" vType="truck" speedFactor="1.06" vaporized=""/>
    <tripinfo id="WE_187" depart="187.00" departLane="1i_0" departPos="4.10" departSpeed="0.00" departDelay="0.00" arrival="269.00" arrivalLane="4o_0" arrivalPos="492.80" arrivalSpeed="10.74" duration="82.00" routeLength="995.70" waitingTime="0.00" waitingCount="0" stopTime="0.00" timeLoss="11.95" rerouteNo="0" devices="tripinfo_WE_187" vType="car" speedFactor="1.02" vaporized=""/>
    <tripinfo id="WE_191" depart="192.00" departLane="1i_0" departPos="4.10" departSpeed="0.00" departDelay="1.00" arrival="275.00" arrivalLane="4o_0" arrivalPos="492.80" arrivalSpeed="9.93" duration="83.00" routeLength="995.70" waitingTime="0.00" waitingCount="0" stopTime="0.00" timeLoss="11.27" rerouteNo="0" devices="tripinfo_WE_191" vType="car" speedFactor="0.99" vaporized=""/>
    <tripinfo id="WE_195" depart="195.00" departLane="1i_0" departPos="4.10" departSpeed="0.00" departDelay="0.00" arrival="280.00" arrivalLane="2o_0" arrivalPos="492.80" arrivalSpeed="10.18" duration="85.00" routeLength="995.90" waitingTime="0.00" waitingCount="0" stopTime="0.00" timeLoss="9.16" rerouteNo="0" devices="tripinfo_WE_195" vType="car" speedFactor="0.94" vaporized=""/>
    <tripinfo id="WE_200" depart="200.00" departLane="1i_0" departPos="4.10" departSpeed="0.00" departDelay="0.00" arrival="281.00" arrivalLane="3o_0" arrivalPos="492.80" arrivalSpeed="11.26" duration="81.00" routeLength="990.53" waitingTime="2.00" waitingCount="1" stopTime="0.00" timeLoss="12.75" rerouteNo="0" devices="tripinfo_WE_200" vType="car" speedFactor="1.04" vaporized=""/>
    <tripinfo id="EW_197" depart="197.00" departLane="4i_0" departPos="4.10" departSpeed="0.00" departDelay="0.00" arrival="286.00" arrivalLane="2o_0" arrivalPos="492.80" arrivalSpeed="9.86" duration="89.00" routeLength="995.70" waitingTime="0.00" waitingCount="0" stopTime="0.00" timeLoss="10.33" rerouteNo="0" devices="tripinfo_EW_197" vType="car" speedFactor="0.91" vaporized=""/>
    <tripinfo id="SN_196" depart="196.00" departLane="3i_0" departPos="4.10" departSpeed="0.00" departDelay="0.00" arrival="289.00" arrivalLane="1o_0" arrivalPos="492.80" arrivalSpeed="9.41" duration="93.00" routeLength="995.70" waitingTime="0.00" waitingCount="0" stopTime="0.00" timeLoss="12.81" rerouteNo="0" devices="tripinfo_SN_196" vType="car" speedFactor="0.88" vaporized=""/>
    <tripinfo id="EW_199" depart="199.00" departLane="4i_0" departPos="4.10" departSpeed="0.00" departDelay="0.00" arrival="290.00" arrivalLane="3o_0" arrivalPos="492.80" arrivalSpeed="9.27" duration="91.00" routeLength="995.90" waitingTime="0.00" waitingCount="0" stopTime="0.00" timeLoss="13.41" rerouteNo="0" devices="tripinfo_EW_199" vType="car" speedFactor="0.91" vaporized=""/>
    <tripinfo id="NS_202" depart="202.00" departLane="2i_0" departPos="4.10" departSpeed="0.00" departDelay="0.00" arrival="291.00" arrivalLane="1o_0" arrivalPos="492.80" arrivalSpeed="11.24" duration="89.00" routeLength="995.90" waitingTime="0.00" waitingCount="0" stopTime="0.00" timeLoss="19.60" rerouteNo="0" devices="tripinfo_NS_202" vType="car" speedFactor="1.02" vaporized=""/>
    <tripinfo id="EW_200" depart="202.00" departLane="4i_0" departPos="4.10" departSpeed="0.00" departDelay="2.00" arrival="293.00" arrivalLane="1o_0" arrivalPos="492.80" arrivalSpeed="11.30" duration="91.00" routeLength="990.53" waitingTime="1.00" waitingCount="1" stopTime="0.00" timeLoss="21.66" rerouteNo="0" devices="tripinfo_EW_200" vType="car" speedFactor="1.02" vaporized=""/>
    <tripinfo id="WE_205" depart="205.00" departLane="1i_0" departPos="4.10" departSpeed="0.00" departDelay="0.00" arrival="296.00" arrivalLane="4o_0" arrivalPos="492.80" arrivalSpeed="10.35" duration="91.00" routeLength="995.70" waitingTime="5.00" waitingCount="1" stopTime="0.00" timeLoss="17.60" rerouteNo="0" devices="tripinfo_WE_205" vType="car" speedFactor="0.97" vaporized=""/>
    <tripinfo id="WE_212" depart="212.00" departLane="1i_0" departPos="4.10" departSpeed="0.00" departDelay="0.00" arrival="297.00" arrivalLane="4o_0" arrivalPos="492.80" arrivalSpeed="11.38" duration="85.00" routeLength="995.70" waitingTime="0.00" waitingCount="0" stopTime="0.00" timeLoss="18.12" rerouteNo="0" devices="tripinfo_WE_212" vType="car" speedFactor="1.06" vaporized=""/>
    <tripinfo id="EW_210" depart="210.00" departLane="4i_0" departPos="4.10" departSpeed="0.00" departDelay="0.00" arrival="300.00" arrivalLane="2o_0" arrivalPos="492.80" arrivalSpeed="9.81" duration="90.00" routeLength="995.70" waitingTime="1.00" waitingCount="1" stopTime="0.00" timeLoss="14.09" rerouteNo="0" devices="tripinfo_EW_210" vType="car" speedFactor="0.94" vaporized=""/>
    <tripinfo id="EW_213" depart="213.00" departLane="4i_0" departPos="4.10" departSpeed="0.00" departDelay="0.00" arrival="301.00" arrivalLane="2o_0" arrivalPos="492.80" arrivalSpeed="9.83" duration="88.00" routeLength="995.70" waitingTime="0.00" waitingCount="0" stopTime="0.00" timeLoss="14.02" rerouteNo="0" devices="tripinfo_EW_213" vType="car" speedFactor="0.96" vaporized=""/>
    <tripinfo id="NS_225" depart="225.00" departLane="2i_0" departPos="4.10" departSpeed="0.00" departDelay="0.00" arrival="302.00" arrivalLane="4o_0" arrivalPos="492.80" arrivalSpeed="11.40" duration="77.00" routeLength="990.53" waitingTime="0.00" waitingCount="0" stopTime="0.00" timeLoss="8.61" rerouteNo="0" devices="tripinfo_NS_225" vType="car" speedFactor="1.03" vaporized=""/>