<?xml version="1.0" encoding="UTF-8"?>

<!-- generated on 2024-05-04 17:14:49 by Eclipse SUMO sumo Version 1.19.0
<configuration xmlns:xsi="http://www.w3.org/2001/XMLSchema-instance" xsi:noNamespaceSchemaLocation="http://sumo.dlr.de/xsd/sumoConfiguration.xsd">

    <input>
        <net-file value="test5.net.xml"/>
        <route-files value="route_gen.rou.xml"/>
    </input>

    <output>
        <tripinfo-output value="tripinfo_epi128.xml"/>
    </output>

    <report>
        <no-warnings value="true"/>
    </report>

    <traci_server>
        <remote-port value="44095"/>
    </traci_server>

</configuration>
-->

<tripinfos xmlns:xsi="http://www.w3.org/2001/XMLSchema-instance" xsi:noNamespaceSchemaLocation="http://sumo.dlr.de/xsd/tripinfo_file.xsd">
    <tripinfo id="EW_0" depart="0.00" departLane="4i_0" departPos="4.10" departSpeed="0.00" departDelay="0.00" arrival="75.00" arrivalLane="3o_0" arrivalPos="492.80" arrivalSpeed="11.49" duration="75.00" routeLength="995.90" waitingTime="0.00" waitingCount="0" stopTime="0.00" timeLoss="8.11" rerouteNo="0" devices="tripinfo_EW_0" vType="car" speedFactor="1.06" vaporized=""/>
    <tripinfo id="EW_8" depart="8.00" departLane="4i_0" departPos="4.10" departSpeed="0.00" departDelay="0.00" arrival="92.00" arrivalLane="1o_0" arrivalPos="492.80" arrivalSpeed="9.50" duration="84.00" routeLength="990.53" waitingTime="0.00" waitingCount="0" stopTime="0.00" timeLoss="8.26" rerouteNo="0" devices="tripinfo_EW_8" vType="car" speedFactor="0.94" vaporized=""/>
    <tripinfo id="EW_11" depart="11.00" departLane="4i_0" departPos="4.10" departSpeed="0.00" departDelay="0.00" arrival="93.00" arrivalLane="1o_0" arrivalPos="492.80" arrivalSpeed="10.32" duration="82.00" routeLength="990.53" waitingTime="0.00" waitingCount="0" stopTime="0.00" timeLoss="12.31" rerouteNo="0" devices="tripinfo_EW_11" vType="car" speedFactor="1.01" vaporized=""/>
    <tripinfo id="EW_12" depart="13.00" departLane="4i_0" departPos="4.10" departSpeed="0.00" departDelay="1.00" arrival="95.00" arrivalLane="1o_0" arrivalPos="492.80" arrivalSpeed="12.00" duration="82.00" routeLength="990.53" waitingTime="0.00" waitingCount="0" stopTime="0.00" timeLoss="16.56" rerouteNo="0" devices="tripinfo_EW_12" vType="car" speedFactor="1.08" vaporized=""/>
    <tripinfo id="NS_14" depart="14.00" departLane="2i_0" departPos="4.10" departSpeed="0.00" departDelay="0.00" arrival="97.00" arrivalLane="1o_0" arrivalPos="492.80" arrivalSpeed="11.20" duration="83.00" routeLength="995.90" waitingTime="0.00" waitingCount="0" stopTime="0.00" timeLoss="13.56" rerouteNo="0" devices="tripinfo_NS_14" vType="car" speedFactor="1.03" vaporized=""/>
    <tripinfo id="EW_27" depart="27.00" departLane="4i_0" departPos="4.10" departSpeed="0.00" departDelay="0.00" arrival="99.00" arrivalLane="1o_0" arrivalPos="492.80" arrivalSpeed="12.32" duration="72.00" routeLength="990.53" waitingTime="0.00" waitingCount="0" stopTime="0.00" timeLoss="8.56" rerouteNo="0" devices="tripinfo_EW_27" vType="car" speedFactor="1.12" vaporized=""/>
    <tripinfo id="SN_24" depart="24.00" departLane="3i_0" departPos="4.10" departSpeed="0.00" departDelay="0.00" arrival="103.00" arrivalLane="1o_0" arrivalPos="492.80" arrivalSpeed="10.79" duration="79.00" routeLength="995.70" waitingTime="0.00" waitingCount="0" stopTime="0.00" timeLoss="10.20" rerouteNo="0" devices="tripinfo_SN_24" vType="car" speedFactor="1.03" vaporized=""/>
    <tripinfo id="NS_27" depart="27.00" departLane="2i_0" departPos="4.10" departSpeed="0.00" departDelay="0.00" arrival="109.00" arrivalLane="1o_0" arrivalPos="492.80" arrivalSpeed="10.83" duration="82.00" routeLength="995.90" waitingTime="0.00" waitingCount="0" stopTime="0.00" timeLoss="10.03" rerouteNo="0" devices="tripinfo_NS_27" vType="car" speedFactor="0.99" vaporized=""/>
    <tripinfo id="EW_41" depart="41.00" departLane="4i_0" departPos="4.10" departSpeed="0.00" departDelay="0.00" arrival="110.00" arrivalLane="1o_0" arrivalPos="492.80" arrivalSpeed="11.90" duration="69.00" routeLength="990.53" waitingTime="0.00" waitingCount="0" stopTime="0.00" timeLoss="8.11" rerouteNo="0" devices="tripinfo_EW_41" vType="car" speedFactor="1.16" vaporized=""/>
    <tripinfo id="SN_20" depart="20.00" departLane="3i_0" departPos="4.10" departSpeed="0.00" departDelay="0.00" arrival="111.00" arrivalLane="4o_0" arrivalPos="492.80" arrivalSpeed="8.88" duration="91.00" routeLength="995.90" waitingTime="0.00" waitingCount="0" stopTime="0.00" timeLoss="8.23" rerouteNo="0" devices="tripinfo_SN_20" vType="car" speedFactor="0.86" vaporized=""/>
    <tripinfo id="NS_20" depart="20.00" departLane="2i_0" departPos="4.10" departSpeed="0.00" departDelay="0.00" arrival="113.00" arrivalLane="4o_0" arrivalPos="492.80" arrivalSpeed="9.19" duration="93.00" routeLength="990.53" waitingTime="1.00" waitingCount="1" stopTime="0.00" timeLoss="17.68" rerouteNo="0" devices="tripinfo_NS_20" vType="car" speedFactor="0.94" vaporized=""/>
    <tripinfo id="WE_18" depart="19.00" departLane="1i_0" departPos="4.10" departSpeed="0.00" departDelay="1.00" arrival="115.00" arrivalLane="4o_0" arrivalPos="492.80" arrivalSpeed="10.66" duration="96.00" routeLength="995.70" waitingTime="2.00" waitingCount="1" stopTime="0.00" timeLoss="27.87" rerouteNo="0" devices="tripinfo_WE_18" vType="car" speedFactor="1.05" vaporized=""/>
    <tripinfo id="WE_16" depart="16.00" departLane="1i_0" departPos="4.10" departSpeed="0.00" departDelay="0.00" arrival="117.00" arrivalLane="3o_0" arrivalPos="492.80" arrivalSpeed="8.76" duration="101.00" routeLength="990.53" waitingTime="3.00" waitingCount="1" stopTime="0.00" timeLoss="16.22" rerouteNo="0" devices="tripinfo_WE_16" vType="car" speedFactor="0.83" vaporized=""/>
    <tripinfo id="WE_23" depart="24.00" departLane="1i_0" departPos="4.10" departSpeed="0.00" departDelay="1.00" arrival="119.00" arrivalLane="2o_0" arrivalPos="492.80" arrivalSpeed="11.52" duration="95.00" routeLength="995.90" waitingTime="6.00" waitingCount="1" stopTime="0.00" timeLoss="29.68" rerouteNo="0" devices="tripinfo_WE_23" vType="car" speedFactor="1.09" vaporized=""/>
    <tripinfo id="WE_19" depart="21.00" departLane="1i_0" departPos="4.10" departSpeed="0.00" departDelay="2.00" arrival="120.00" arrivalLane="4o_0" arrivalPos="492.80" arrivalSpeed="8.77" duration="99.00" routeLength="995.70" waitingTime="1.00" waitingCount="1" stopTime="0.00" timeLoss="19.14" rerouteNo="0" devices="tripinfo_WE_19" vType="car" speedFactor="0.89" vaporized=""/>
    <tripinfo id="SN_31" depart="31.00" departLane="3i_0" departPos="10.10" departSpeed="0.00" departDelay="0.00" arrival="123.00" arrivalLane="4o_0" arrivalPos="492.80" arrivalSpeed="10.29" duration="92.00" routeLength="989.90" waitingTime="0.00" waitingCount="0" stopTime="0.00" timeLoss="18.22" rerouteNo="0" devices="tripinfo_SN_31" vType="truck" speedFactor="0.96" vaporized=""/>
    <tripinfo id="EW_42" depart="44.00" departLane="4i_0" departPos="4.10" departSpeed="0.00" departDelay="2.00" arrival="123.00" arrivalLane="3o_0" arrivalPos="492.80" arrivalSpeed="10.23" duration="79.00" routeLength="995.90" waitingTime="0.00" waitingCount="0" stopTime="0.00" timeLoss="9.50" rerouteNo="0" devices="tripinfo_EW_42" vType="car" speedFactor="1.02" vaporized=""/>
    <tripinfo id="WE_27" depart="27.00" departLane="1i_0" departPos="4.10" departSpeed="0.00" departDelay="0.00" arrival="127.00" arrivalLane="2o_0" arrivalPos="492.80" arrivalSpeed="10.38" duration="100.00" routeLength="995.90" waitingTime="4.00" waitingCount="1" stopTime="0.00" timeLoss="32.42" rerouteNo="0" devices="tripinfo_WE_27" vType="car" speedFactor="1.05" vaporized=""/>
    <tripinfo id="NS_44" depart="44.00" departLane="2i_0" departPos="4.10" departSpeed="0.00" departDelay="0.00" arrival="128.00" arrivalLane="1o_0" arrivalPos="492.80" arrivalSpeed="11.20" duration="84.00" routeLength="995.90" waitingTime="1.00" waitingCount="1" stopTime="0.00" timeLoss="14.15" rerouteNo="0" devices="tripinfo_NS_44" vType="car" speedFactor="1.01" vaporized=""/>
    <tripinfo id="NS_36" depart="36.00" departLane="2i_0" departPos="4.10" departSpeed="0.00" departDelay="0.00" arrival="129.00" arrivalLane="4o_0" arrivalPos="492.80" arrivalSpeed="9.38" duration="93.00" routeLength="990.53" waitingTime="0.00" waitingCount="0" stopTime="0.00" timeLoss="12.99" rerouteNo="0" devices="tripinfo_NS_36" vType="car" speedFactor="0.88" vaporized=""/>
    <tripinfo id="WE_37" depart="37.00" departLane="1i_0" departPos="4.10" departSpeed="0.00" departDelay="0.00" arrival="138.00" arrivalLane="2o_0" arrivalPos="492.80" arrivalSpeed="10.43" duration="101.00" routeLength="995.90" waitingTime="4.00" waitingCount="2" stopTime="0.00" timeLoss="25.50" rerouteNo="0" devices="tripinfo_WE_37" vType="car" speedFactor="0.94" vaporized=""/>
    <tripinfo id="EW_56" depart="56.00" departLane="4i_0" departPos="4.10" departSpeed="0.00" departDelay="0.00" arrival="144.00" arrivalLane="3o_0" arrivalPos="492.80" arrivalSpeed="8.74" duration="88.00" routeLength="995.90" waitingTime="0.00" waitingCount="0" stopTime="0.00" timeLoss="8.19" rerouteNo="0" devices="tripinfo_EW_56" vType="car" speedFactor="0.89" vaporized=""/>
    <tripinfo id="EW_65" depart="65.00" departLane="4i_0" departPos="4.10" departSpeed="0.00" departDelay="0.00" arrival="149.00" arrivalLane="1o_0" arrivalPos="492.80" arrivalSpeed="9.93" duration="84.00" routeLength="990.53" waitingTime="0.00" waitingCount="0" stopTime="0.00" timeLoss="9.00" rerouteNo="0" devices="tripinfo_EW_65" vType="car" speedFactor="0.95" vaporized=""/>
    <tripinfo id="WE_41" depart="41.00" departLane="1i_0" departPos="4.10" departSpeed="0.00" departDelay="0.00" arrival="150.00" arrivalLane="4o_0" arrivalPos="492.80" arrivalSpeed="9.73" duration="109.00" routeLength="995.70" waitingTime="7.00" waitingCount="1" stopTime="0.00" timeLoss="33.51" rerouteNo="0" devices="tripinfo_WE_41" vType="car" speedFactor="0.94" vaporized=""/>
    <tripinfo id="WE_50" depart="50.00" departLane="1i_0" departPos="4.10" departSpeed="0.00" departDelay="0.00" arrival="150.00" arrivalLane="3o_0" arrivalPos="492.80" arrivalSpeed="10.67" duration="100.00" routeLength="990.53" waitingTime="7.00" waitingCount="1" stopTime="0.00" timeLoss="27.26" rerouteNo="0" devices="tripinfo_WE_50" vType="car" speedFactor="0.97" vaporized=""/>
    <tripinfo id="SN_65" depart="65.00" departLane="3i_0" departPos="4.10" departSpeed="0.00" departDelay="0.00" arrival="150.00" arrivalLane="1o_0" arrivalPos="492.80" arrivalSpeed="12.24" duration="85.00" routeLength="995.70" waitingTime="3.00" waitingCount="1" stopTime="0.00" timeLoss="22.40" rerouteNo="0" devices="tripinfo_SN_65" vType="car" speedFactor="1.13" vaporized=""/>
    <tripinfo id="WE_77" depart="77.00" departLane="1i_0" departPos="4.10" departSpeed="0.00" departDelay="0.00" arrival="151.00" arrivalLane="3o_0" arrivalPos="492.80" arrivalSpeed="11.85" duration="74.00" routeLength="990.53" waitingTime="0.00" waitingCount="0" stopTime="0.00" timeLoss="13.71" rerouteNo="0" devices="tripinfo_WE_77" vType="car" speedFactor="1.17" vaporized=""/>
    <tripinfo id="EW_72" depart="72.00" departLane="4i_0" departPos="4.10" departSpeed="0.00" departDelay="0.00" arrival="153.00" arrivalLane="3o_0" arrivalPos="492.80" arrivalSpeed="11.82" duration="81.00" routeLength="995.90" waitingTime="2.00" waitingCount="1" stopTime="0.00" timeLoss="19.45" rerouteNo="0" devices="tripinfo_EW_72" vType="car" speedFactor="1.15" vaporized=""/>
    <tripinfo id="SN_71" depart="71.00" departLane="3i_0" departPos="4.10" departSpeed="0.00" departDelay="0.00" arrival="160.00" arrivalLane="2o_0" arrivalPos="492.80" arrivalSpeed="12.56" duration="89.00" routeLength="990.53" waitingTime="7.00" waitingCount="3" stopTime="0.00" timeLoss="29.13" rerouteNo="0" devices="tripinfo_SN_71" vType="car" speedFactor="1.18" vaporized=""/>
    <tripinfo id="NS_57" depart="57.00" departLane="2i_0" departPos="4.10" departSpeed="0.00" departDelay="0.00" arrival="164.00" arrivalLane="1o_0" arrivalPos="492.80" arrivalSpeed="8.11" duration="107.00" routeLength="995.90" waitingTime="6.00" waitingCount="2" stopTime="0.00" timeLoss="21.25" rerouteNo="0" devices="tripinfo_NS_57" vType="car" speedFactor="0.83" vaporized=""/>
    <tripinfo id="NS_59" depart="59.00" departLane="2i_0" departPos="4.10" departSpeed="0.00" departDelay="0.00" arrival="167.00" arrivalLane="3o_0" arrivalPos="492.80" arrivalSpeed="8.62" duration="108.00" routeLength="995.70" waitingTime="6.00" waitingCount="2" stopTime="0.00" timeLoss="26.39" rerouteNo="0" devices="tripinfo_NS_59" vType="car" speedFactor="0.87" vaporized=""/>
    <tripinfo id="SN_68" depart="68.00" departLane="3i_0" departPos="4.10" departSpeed="0.00" departDelay="0.00" arrival="168.00" arrivalLane="1o_0" arrivalPos="492.80" arrivalSpeed="9.50" duration="100.00" routeLength="995.70" waitingTime="10.00" waitingCount="2" stopTime="0.00" timeLoss="23.80" rerouteNo="0" devices="tripinfo_SN_68" vType="car" speedFactor="0.93" vaporized=""/>
    <tripinfo id="SN_82" depart="82.00" departLane="3i_0" departPos="4.10" departSpeed="0.00" departDelay="0.00" arrival="169.00" arrivalLane="2o_0" arrivalPos="492.80" arrivalSpeed="10.82" duration="87.00" routeLength="990.53" waitingTime="2.00" waitingCount="1" stopTime="0.00" timeLoss="17.42" rerouteNo="0" devices="tripinfo_SN_82" vType="car" speedFactor="1.02" vaporized=""/>
    <tripinfo id="NS_62" depart="63.00" departLane="2i_0" departPos="4.10" departSpeed="0.00" departDelay="1.00" arrival="172.00" arrivalLane="1o_0" arrivalPos="492.80" arrivalSpeed="9.74" duration="109.00" routeLength="995.90" waitingTime="8.00" waitingCount="4" stopTime="0.00" timeLoss="31.68" rerouteNo="0" devices="tripinfo_NS_62" vType="car" speedFactor="0.92" vaporized=""/>
    <tripinfo id="NS_84" depart="84.00" departLane="2i_0" departPos="4.10" departSpeed="0.00" departDelay="0.00" arrival="172.00" arrivalLane="3o_0" arrivalPos="492.80" arrivalSpeed="12.56" duration="88.00" routeLength="995.70" waitingTime="0.00" waitingCount="0" stopTime="0.00" timeLoss="27.27" rerouteNo="0" devices="tripinfo_NS_84" vType="car" speedFactor="1.18" vaporized=""/>
    <tripinfo id="NS_74" depart="74.00" departLane="2i_0" departPos="4.10" departSpeed="0.00" departDelay="0.00" arrival="173.00" arrivalLane="4o_0" arrivalPos="492.80" arrivalSpeed="11.07" duration="99.00" routeLength="990.53" waitingTime="2.00" waitingCount="2" stopTime="0.00" timeLoss="28.34" rerouteNo="0" devices="tripinfo_NS_74" vType="car" speedFactor="1.01" vaporized=""/>
    <tripinfo id="NS_79" depart="79.00" departLane="2i_0" departPos="4.10" departSpeed="0.00" departDelay="0.00" arrival="175.00" arrivalLane="4o_0" arrivalPos="492.80" arrivalSpeed="10.47" duration="96.00" routeLength="990.53" waitingTime="0.00" waitingCount="0" stopTime="0.00" timeLoss="24.97" rerouteNo="0" devices="tripinfo_NS_79" vType="car" speedFactor="0.99" vaporized=""/>
    <tripinfo id="SN_83" depart="85.00" departLane="3i_0" departPos="4.10" departSpeed="0.00" departDelay="2.00" arrival="177.00" arrivalLane="1o_0" arrivalPos="492.80" arrivalSpeed="9.85" duration="92.00" routeLength="995.70" waitingTime="0.00" waitingCount="0" stopTime="0.00" timeLoss="19.48" rerouteNo="0" devices="tripinfo_SN_83" vType="car" speedFactor="0.97" vaporized=""/>
    <tripinfo id="WE_89" depart="89.00" departLane="1i_0" departPos="4.10" departSpeed="0.00" departDelay="0.00" arrival="178.00" arrivalLane="2o_0" arrivalPos="492.80" arrivalSpeed="9.58" duration="89.00" routeLength="995.90" waitingTime="0.00" waitingCount="0" stopTime="0.00" timeLoss="9.67" rerouteNo="0" devices="tripinfo_WE_89" vType="car" speedFactor="0.90" vaporized=""/>
    <tripinfo id="EW_104" depart="104.00" departLane="4i_0" departPos="4.10" departSpeed="0.00" departDelay="0.00" arrival="178.00" arrivalLane="3o_0" arrivalPos="492.80" arrivalSpeed="11.08" duration="74.00" routeLength="995.90" waitingTime="0.00" waitingCount="0" stopTime="0.00" timeLoss="8.38" rerouteNo="0" devices="tripinfo_EW_104" vType="car" speedFactor="1.09" vaporized=""/>
    <tripinfo id="EW_98" depart="98.00" departLane="4i_0" departPos="4.10" departSpeed="0.00" departDelay="0.00" arrival="180.00" arrivalLane="1o_0" arrivalPos="492.80" arrivalSpeed="10.08" duration="82.00" routeLength="990.53" waitingTime="0.00" waitingCount="0" stopTime="0.00" timeLoss="8.04" rerouteNo="0" devices="tripinfo_EW_98" vType="car" speedFactor="0.96" vaporized=""/>
    <tripinfo id="SN_87" depart="88.00" departLane="3i_0" departPos="4.10" departSpeed="0.00" departDelay="1.00" arrival="182.00" arrivalLane="1o_0" arrivalPos="492.80" arrivalSpeed="11.45" duration="94.00" routeLength="995.70" waitingTime="4.00" waitingCount="1" stopTime="0.00" timeLoss="29.31" rerouteNo="0" devices="tripinfo_SN_87" vType="car" speedFactor="1.10" vaporized=""/>
    <tripinfo id="WE_94" depart="99.00" departLane="1i_0" departPos="4.10" departSpeed="0.00" departDelay="5.00" arrival="183.00" arrivalLane="3o_0" arrivalPos="492.80" arrivalSpeed="11.10" duration="84.00" routeLength="990.53" waitingTime="5.00" waitingCount="1" stopTime="0.00" timeLoss="15.66" rerouteNo="0" devices="tripinfo_WE_94" vType="car" speedFactor="1.03" vaporized=""/>
    <tripinfo id="NS_99" depart="99.00" departLane="2i_0" departPos="4.10" departSpeed="0.00" departDelay="0.00" arrival="186.00" arrivalLane="1o_0" arrivalPos="492.80" arrivalSpeed="11.56" duration="87.00" routeLength="995.90" waitingTime="2.00" waitingCount="2" stopTime="0.00" timeLoss="18.60" rerouteNo="0" devices="tripinfo_NS_99" vType="car" speedFactor="1.04" vaporized=""/>
    <tripinfo id="SN_98" depart="98.00" departLane="3i_0" departPos="4.10" departSpeed="0.00" departDelay="0.00" arrival="187.00" arrivalLane="1o_0" arrivalPos="492.80" arrivalSpeed="11.56" duration="89.00" routeLength="995.70" waitingTime="4.00" waitingCount="2" stopTime="0.00" timeLoss="24.39" rerouteNo="0" devices="tripinfo_SN_98" vType="car" speedFactor="1.09" vaporized=""/>
    <tripinfo id="WE_99" depart="103.00" departLane="1i_0" departPos="4.10" departSpeed="0.00" departDelay="4.00" arrival="188.00" arrivalLane="4o_0" arrivalPos="492.80" arrivalSpeed="10.31" duration="85.00" routeLength="995.70" waitingTime="1.00" waitingCount="1" stopTime="0.00" timeLoss="16.87" rerouteNo="0" devices="tripinfo_WE_99" vType="car" speedFactor="1.04" vaporized=""/>
    <tripinfo id="SN_104" depart="104.00" departLane="3i_0" departPos="4.10" departSpeed="0.00" departDelay="0.00" arrival="192.00" arrivalLane="2o_0" arrivalPos="492.80" arrivalSpeed="10.07" duration="88.00" routeLength="990.53" waitingTime="0.00" waitingCount="0" stopTime="0.00" timeLoss="16.92" rerouteNo="0" devices="tripinfo_SN_104" vType="car" speedFactor="1.00" vaporized=""/>
    <tripinfo id="SN_114" depart="114.00" departLane="3i_0" departPos="4.10" departSpeed="0.00" departDelay="0.00" arrival="204.00" arrivalLane="2o_0" arrivalPos="492.80" arrivalSpeed="8.73" duration="90.00" routeLength="990.53" waitingTime="0.00" waitingCount="0" stopTime="0.00" timeLoss="8.88" rerouteNo="0" devices="tripinfo_SN_114" vType="car" speedFactor="0.88" vaporized=""/>
    <tripinfo id="WE_115" depart="115.00" departLane="1i_0" departPos="4.10" departSpeed="0.00" departDelay="0.00" arrival="210.00" arrivalLane="2o_0" arrivalPos="492.80" arrivalSpeed="9.37" duration="95.00" routeLength="995.90" waitingTime="0.00" waitingCount="0" stopTime="0.00" timeLoss="11.22" rerouteNo="0" devices="tripinfo_WE_115" vType="car" speedFactor="0.85" vaporized=""/>
    <tripinfo id="WE_121" depart="121.00" departLane="1i_0" departPos="4.10" departSpeed="0.00" departDelay="0.00" arrival="211.00" arrivalLane="2o_0" arrivalPos="492.80" arrivalSpeed="10.23" duration="90.00" routeLength="995.90" waitingTime="0.00" waitingCount="0" stopTime="0.00" timeLoss="29.54" rerouteNo="0" devices="tripinfo_WE_121" vType="car" speedFactor="1.17" vaporized=""/>
    <tripinfo id="SN_116" depart="117.00" departLane="3i_0" departPos="4.10" departSpeed="0.00" departDelay="1.00" arrival="212.00" arrivalLane="4o_0" arrivalPos="492.80" arrivalSpeed="9.43" duration="95.00" routeLength="995.90" waitingTime="1.00" waitingCount="1" stopTime="0.00" timeLoss="11.38" rerouteNo="0" devices="tripinfo_SN_116" vType="car" speedFactor="0.85" vaporized=""/>
    <tripinfo id="EW_122" depart="123.00" departLane="4i_0" departPos="4.10" departSpeed="0.00" departDelay="1.00" arrival="213.00" arrivalLane="2o_0" arrivalPos="492.80" arrivalSpeed="10.49" duration="90.00" routeLength="995.70" waitingTime="2.00" waitingCount="1" stopTime="0.00" timeLoss="20.29" rerouteNo="0" devices="tripinfo_EW_122" vType="car" speedFactor="1.02" vaporized=""/>
    <tripinfo id="NS_122" depart="122.00" departLane="2i_0" departPos="4.10" departSpeed="0.00" departDelay="0.00" arrival="227.00" arrivalLane="4o_0" arrivalPos="492.80" arrivalSpeed="11.46" duration="105.00" routeLength="990.53" waitingTime="25.00" waitingCount="1" stopTime="0.00" timeLoss="40.42" rerouteNo="0" devices="tripinfo_NS_122" vType="car" speedFactor="1.10" vaporized=""/>
    <tripinfo id="WE_146" depart="146.00" departLane="1i_0" departPos="4.10" departSpeed="0.00" departDelay="0.00" arrival="230.00" arrivalLane="3o_0" arrivalPos="492.80" arrivalSpeed="10.40" duration="84.00" routeLength="990.53" waitingTime="0.00" waitingCount="0" stopTime="0.00" timeLoss="8.29" rerouteNo="0" devices="tripinfo_WE_146" vType="car" speedFactor="0.94" vaporized=""/>
    <tripinfo id="NS_123" depart="125.00" departLane="2i_0" departPos="4.10" departSpeed="0.00" departDelay="2.00" arrival="234.00" arrivalLane="4o_0" arrivalPos="492.80" arrivalSpeed="10.00" duration="109.00" routeLength="990.53" waitingTime="23.00" waitingCount="1" stopTime="0.00" timeLoss="38.17" rerouteNo="0" devices="tripinfo_NS_123" vType="car" speedFactor="1.00" vaporized=""/>
    <tripinfo id="SN_128" depart="128.00" departLane="3i_0" departPos="4.10" departSpeed="0.00" departDelay="0.00" arrival="234.00" arrivalLane="2o_0" arrivalPos="492.80" arrivalSpeed="12.62" duration="106.00" routeLength="990.53" waitingTime="25.00" waitingCount="1" stopTime="0.00" timeLoss="43.65" rerouteNo="0" devices="tripinfo_SN_128" vType="car" speedFactor="1.14" vaporized=""/>
    <tripinfo id="NS_114" depart="114.00" departLane="2i_0" departPos="4.10" departSpeed="0.00" departDelay="0.00" arrival="235.00" arrivalLane="3o_0" arrivalPos="492.80" arrivalSpeed="9.31" duration="121.00" routeLength="995.70" waitingTime="27.00" waitingCount="2" stopTime="0.00" timeLoss="42.11" rerouteNo="0" devices="tripinfo_NS_114" vType="car" speedFactor="0.90" vaporized=""/>
    <tripinfo id="NS_124" depart="127.00" departLane="2i_0" departPos="4.10" departSpeed="0.00" departDelay="3.00" arrival="235.00" arrivalLane="4o_0" arrivalPos="492.80" arrivalSpeed="10.59" duration="108.00" routeLength="990.53" waitingTime="21.00" waitingCount="1" stopTime="0.00" timeLoss="37.35" rerouteNo="0" devices="tripinfo_NS_124" vType="car" speedFactor="1.00" vaporized=""/>
    <tripinfo id="SN_133" depart="133.00" departLane="3i_0" departPos="4.10" departSpeed="0.00" departDelay="0.00" arrival="240.00" arrivalLane="2o_0" arrivalPos="492.80" arrivalSpeed="10.96" duration="107.00" routeLength="990.53" waitingTime="23.00" waitingCount="1" stopTime="0.00" timeLoss="38.25" rerouteNo="0" devices="tripinfo_SN_133" vType="car" speedFactor="1.02" vaporized=""/>
    <tripinfo id="EW_134" depart="134.00" departLane="4i_0" departPos="10.10" departSpeed="0.00" departDelay="0.00" arrival="240.00" arrivalLane="1o_0" arrivalPos="492.80" arrivalSpeed="10.85" duration="106.00" routeLength="984.53" waitingTime="13.00" waitingCount="1" stopTime="0.00" timeLoss="34.20" rerouteNo="0" devices="tripinfo_EW_134" vType="truck" speedFactor="0.98" vaporized=""/>
    <tripinfo id="NS_138" depart="138.00" departLane="2i_0" departPos="4.10" departSpeed="0.00" departDelay="0.00" arrival="241.00" arrivalLane="3o_0" arrivalPos="492.80" arrivalSpeed="10.49" duration="103.00" routeLength="995.70" waitingTime="12.00" waitingCount="1" stopTime="0.00" timeLoss="33.05" rerouteNo="0" devices="tripinfo_NS_138" vType="car" speedFactor="1.02" vaporized=""/>
    <tripinfo id="EW_138" depart="138.00" departLane="4i_0" departPos="4.10" departSpeed="0.00" departDelay="0.00" arrival="242.00" arrivalLane="2o_0" arrivalPos="492.80" arrivalSpeed="12.08" duration="104.00" routeLength="995.70" waitingTime="12.00" waitingCount="1" stopTime="0.00" timeLoss="40.65" rerouteNo="0" devices="tripinfo_EW_138" vType="car" speedFactor="1.12" vaporized=""/>
    <tripinfo id="SN_125" depart="125.00" departLane="3i_0" departPos="4.10" departSpeed="0.00" departDelay="0.00" arrival="243.00" arrivalLane="4o_0" arrivalPos="492.80" arrivalSpeed="9.95" duration="118.00" routeLength="995.90" waitingTime="27.00" waitingCount="1" stopTime="0.00" timeLoss="39.28" rerouteNo="0" devices="tripinfo_SN_125" vType="car" speedFactor="0.90" vaporized=""/>
    <tripinfo id="NS_139" depart="141.00" departLane="2i_0" departPos="4.10" departSpeed="0.00" departDelay="2.00" arrival="249.00" arrivalLane="1o_0" arrivalPos="492.80" arrivalSpeed="10.21" duration="108.00" routeLength="995.90" waitingTime="12.00" waitingCount="3" stopTime="0.00" timeLoss="35.70" rerouteNo="0" devices="tripinfo_NS_139" vType="car" speedFactor="0.99" vaporized=""/>
    <tripinfo id="WE_159" depart="159.00" departLane="1i_0" departPos="4.10" departSpeed="0.00" departDelay="0.00" arrival="252.00" arrivalLane="4o_0" arrivalPos="492.80" arrivalSpeed="10.80" duration="93.00" routeLength="995.70" waitingTime="10.00" waitingCount="2" stopTime="0.00" timeLoss="23.37" rerouteNo="0" devices="tripinfo_WE_159" vType="car" speedFactor="1.02" vaporized=""/>
    <tripinfo id="SN_134" depart="136.00" departLane="3i_0" departPos="4.10" departSpeed="0.00" departDelay="2.00" arrival="254.00" arrivalLane="4o_0" arrivalPos="492.80" arrivalSpeed="10.95" duration="118.00" routeLength="995.90" waitingTime="27.00" waitingCount="2" stopTime="0.00" timeLoss="52.00" rerouteNo="0" devices="tripinfo_SN_134" vType="car" speedFactor="1.08" vaporized=""/>
    <tripinfo id="NS_153" depart="153.00" departLane="2i_0" departPos="4.10" departSpeed="0.00" departDelay="0.00" arrival="256.00" arrivalLane="3o_0" arrivalPos="492.80" arrivalSpeed="9.16" duration="103.00" routeLength="995.70" waitingTime="0.00" waitingCount="0" stopTime="0.00" timeLoss="25.12" rerouteNo="0" devices="tripinfo_NS_153" vType="car" speedFactor="0.91" vaporized=""/>
    <tripinfo id="SN_157" depart="157.00" departLane="3i_0" departPos="4.10" departSpeed="0.00" departDelay="0.00" arrival="258.00" arrivalLane="1o_0" arrivalPos="492.80" arrivalSpeed="10.28" duration="101.00" routeLength="995.70" waitingTime="6.00" waitingCount="2" stopTime="0.00" timeLoss="32.94" rerouteNo="0" devices="tripinfo_SN_157" vType="car" speedFactor="1.04" vaporized=""/>
    <tripinfo id="SN_148" depart="151.00" departLane="3i_0" departPos="4.10" departSpeed="0.00" departDelay="3.00" arrival="264.00" arrivalLane="2o_0" arrivalPos="492.80" arrivalSpeed="9.68" duration="113.00" routeLength="990.53" waitingTime="11.00" waitingCount="2" stopTime="0.00" timeLoss="33.11" rerouteNo="0" devices="tripinfo_SN_148" vType="car" speedFactor="0.88" vaporized=""/>
    <tripinfo id="EW_177" depart="177.00" departLane="4i_0" departPos="4.10" departSpeed="0.00" departDelay="0.00" arrival="265.00" arrivalLane="1o_0" arrivalPos="492.80" arrivalSpeed="10.23" duration="88.00" routeLength="990.53" waitingTime="1.00" waitingCount="1" stopTime="0.00" timeLoss="16.68" rerouteNo="0" devices="tripinfo_EW_177" vType="car" speedFactor="0.98" vaporized=""/>
    <tripinfo id="EW_153" depart="153.00" departLane="4i_0" departPos="4.10" departSpeed="0.00" departDelay="0.00" arrival="266.00" arrivalLane="2o_0" arrivalPos="492.80" arrivalSpeed="9.74" duration="113.00" routeLength="995.70" waitingTime="12.00" waitingCount="2" stopTime="0.00" timeLoss="34.80" rerouteNo="0" devices="tripinfo_EW_153" vType="car" speedFactor="0.91" vaporized=""/>
    <tripinfo id="SN_159" depart="160.00" departLane="3i_0" departPos="4.10" departSpeed="0.00" departDelay="1.00" arrival="267.00" arrivalLane="1o_0" arrivalPos="492.80" arrivalSpeed="10.68" duration="107.00" routeLength="995.70" waitingTime="7.00" waitingCount="3" stopTime="0.00" timeLoss="37.74" rerouteNo="0" devices="tripinfo_SN_159" vType="car" speedFactor="1.02" vaporized=""/>
    <tripinfo id="WE_162" depart="162.00" departLane="1i_0" departPos="4.10" departSpeed="0.00" departDelay="0.00" arrival="268.00" arrivalLane="2o_0" arrivalPos="492.80" arrivalSpeed="10.58" duration="106.00" routeLength="995.90" waitingTime="10.00" waitingCount="4" stopTime="0.00" timeLoss="32.75" rerouteNo="0" devices="tripinfo_WE_162" vType="car" speedFactor="0.97" vaporized=""/>
    <tripinfo id="SN_185" depart="185.00" departLane="3i_0" departPos="4.10" departSpeed="0.00" departDelay="0.00" arrival="274.00" arrivalLane="1o_0" arrivalPos="492.80" arrivalSpeed="10.12" duration="89.00" routeLength="995.70" waitingTime="3.00" waitingCount="2" stopTime="0.00" timeLoss="18.83" rerouteNo="0" devices="tripinfo_SN_185" vType="car" speedFactor="1.01" vaporized=""/>
    <tripinfo id="WE_163" depart="165.00" departLane="1i_0" departPos="4.10" departSpeed="0.00" departDelay="2.00" arrival="275.00" arrivalLane="2o_0" arrivalPos="492.80" arrivalSpeed="10.13" duration="110.00" routeLength="995.90" waitingTime="8.00" waitingCount="4" stopTime="0.00" timeLoss="34.41" rerouteNo="0" devices="tripinfo_WE_163" vType="car" speedFactor="0.94" vaporized=""/>
    <tripinfo id="EW_186" depart="186.00" departLane="4i_0" departPos="4.10" departSpeed="0.00" departDelay="0.00" arrival="277.00" arrivalLane="2o_0" arrivalPos="492.80" arrivalSpeed="11.17" duration="91.00" routeLength="995.70" waitingTime="3.00" waitingCount="1" stopTime="0.00" timeLoss="25.36" rerouteNo="0" devices="tripinfo_EW_186" vType="car" speedFactor="1.09" vaporized=""/>