<?xml version="1.0" encoding="UTF-8"?>

<!-- generated on 2024-05-04 17:40:15 by Eclipse SUMO sumo Version 1.19.0
<configuration xmlns:xsi="http://www.w3.org/2001/XMLSchema-instance" xsi:noNamespaceSchemaLocation="http://sumo.dlr.de/xsd/sumoConfiguration.xsd">

    <input>
        <net-file value="test5.net.xml"/>
        <route-files value="route_gen.rou.xml"/>
    </input>

    <output>
        <tripinfo-output value="tripinfo_epi214.xml"/>
    </output>

    <report>
        <no-warnings value="true"/>
    </report>

    <traci_server>
        <remote-port value="51517"/>
    </traci_server>

</configuration>
-->

<tripinfos xmlns:xsi="http://www.w3.org/2001/XMLSchema-instance" xsi:noNamespaceSchemaLocation="http://sumo.dlr.de/xsd/tripinfo_file.xsd">
    <tripinfo id="EW_0" depart="0.00" departLane="4i_0" departPos="4.10" departSpeed="0.00" departDelay="0.00" arrival="77.00" arrivalLane="2o_0" arrivalPos="492.80" arrivalSpeed="11.65" duration="77.00" routeLength="995.70" waitingTime="0.00" waitingCount="0" stopTime="0.00" timeLoss="10.11" rerouteNo="0" devices="tripinfo_EW_0" vType="car" speedFactor="1.06" vaporized=""/>
    <tripinfo id="NS_6" depart="6.00" departLane="2i_0" departPos="4.10" departSpeed="0.00" departDelay="0.00" arrival="93.00" arrivalLane="1o_0" arrivalPos="492.80" arrivalSpeed="9.17" duration="87.00" routeLength="995.90" waitingTime="0.00" waitingCount="0" stopTime="0.00" timeLoss="11.24" rerouteNo="0" devices="tripinfo_NS_6" vType="car" speedFactor="0.94" vaporized=""/>
    <tripinfo id="NS_12" depart="12.00" departLane="2i_0" departPos="4.10" departSpeed="0.00" departDelay="0.00" arrival="93.00" arrivalLane="4o_0" arrivalPos="492.80" arrivalSpeed="10.87" duration="81.00" routeLength="990.53" waitingTime="1.00" waitingCount="1" stopTime="0.00" timeLoss="15.81" rerouteNo="0" devices="tripinfo_NS_12" vType="car" speedFactor="1.08" vaporized=""/>
    <tripinfo id="EW_15" depart="15.00" departLane="4i_0" departPos="4.10" departSpeed="0.00" departDelay="0.00" arrival="94.00" arrivalLane="1o_0" arrivalPos="492.80" arrivalSpeed="11.40" duration="79.00" routeLength="990.53" waitingTime="0.00" waitingCount="0" stopTime="0.00" timeLoss="11.92" rerouteNo="0" devices="tripinfo_EW_15" vType="car" speedFactor="1.05" vaporized=""/>
    <tripinfo id="WE_10" depart="10.00" departLane="1i_0" departPos="4.10" departSpeed="0.00" departDelay="0.00" arrival="97.00" arrivalLane="3o_0" arrivalPos="492.80" arrivalSpeed="10.49" duration="87.00" routeLength="990.53" waitingTime="6.00" waitingCount="1" stopTime="0.00" timeLoss="16.61" rerouteNo="0" devices="tripinfo_WE_10" vType="car" speedFactor="1.01" vaporized=""/>
    <tripinfo id="NS_13" depart="15.00" departLane="2i_0" departPos="4.10" departSpeed="0.00" departDelay="2.00" arrival="99.00" arrivalLane="1o_0" arrivalPos="492.80" arrivalSpeed="11.30" duration="84.00" routeLength="995.90" waitingTime="0.00" waitingCount="0" stopTime="0.00" timeLoss="15.38" rerouteNo="0" devices="tripinfo_NS_13" vType="car" speedFactor="1.03" vaporized=""/>
    <tripinfo id="NS_14" depart="17.00" departLane="2i_0" departPos="4.10" departSpeed="0.00" departDelay="3.00" arrival="113.00" arrivalLane="1o_0" arrivalPos="492.80" arrivalSpeed="8.18" duration="96.00" routeLength="995.90" waitingTime="1.00" waitingCount="1" stopTime="0.00" timeLoss="10.58" rerouteNo="0" devices="tripinfo_NS_14" vType="car" speedFactor="0.83" vaporized=""/>
    <tripinfo id="NS_39" depart="39.00" departLane="2i_0" departPos="4.10" departSpeed="0.00" departDelay="0.00" arrival="117.00" arrivalLane="3o_0" arrivalPos="492.80" arrivalSpeed="11.18" duration="78.00" routeLength="995.70" waitingTime="1.00" waitingCount="1" stopTime="0.00" timeLoss="12.74" rerouteNo="0" devices="tripinfo_NS_39" vType="car" speedFactor="1.09" vaporized=""/>
    <tripinfo id="WE_21" depart="21.00" departLane="1i_0" departPos="4.10" departSpeed="0.00" departDelay="0.00" arrival="124.00" arrivalLane="4o_0" arrivalPos="492.80" arrivalSpeed="9.68" duration="103.00" routeLength="995.70" waitingTime="10.00" waitingCount="1" stopTime="0.00" timeLoss="23.36" rerouteNo="0" devices="tripinfo_WE_21" vType="car" speedFactor="0.89" vaporized=""/>
    <tripinfo id="NS_46" depart="46.00" departLane="2i_0" departPos="4.10" departSpeed="0.00" departDelay="0.00" arrival="126.00" arrivalLane="4o_0" arrivalPos="492.80" arrivalSpeed="10.74" duration="80.00" routeLength="990.53" waitingTime="0.00" waitingCount="0" stopTime="0.00" timeLoss="8.87" rerouteNo="0" devices="tripinfo_NS_46" vType="car" speedFactor="0.99" vaporized=""/>
    <tripinfo id="EW_35" depart="35.00" departLane="4i_0" departPos="4.10" departSpeed="0.00" departDelay="0.00" arrival="129.00" arrivalLane="2o_0" arrivalPos="492.80" arrivalSpeed="9.45" duration="94.00" routeLength="995.70" waitingTime="0.00" waitingCount="0" stopTime="0.00" timeLoss="11.67" rerouteNo="0" devices="tripinfo_EW_35" vType="car" speedFactor="0.86" vaporized=""/>
    <tripinfo id="WE_40" depart="40.00" departLane="1i_0" departPos="4.10" departSpeed="0.00" departDelay="0.00" arrival="131.00" arrivalLane="3o_0" arrivalPos="492.80" arrivalSpeed="10.83" duration="91.00" routeLength="990.53" waitingTime="4.00" waitingCount="2" stopTime="0.00" timeLoss="22.21" rerouteNo="0" devices="tripinfo_WE_40" vType="car" speedFactor="1.03" vaporized=""/>
    <tripinfo id="EW_40" depart="40.00" departLane="4i_0" departPos="4.10" departSpeed="0.00" departDelay="0.00" arrival="131.00" arrivalLane="2o_0" arrivalPos="492.80" arrivalSpeed="10.37" duration="91.00" routeLength="995.70" waitingTime="0.00" waitingCount="0" stopTime="0.00" timeLoss="23.35" rerouteNo="0" devices="tripinfo_EW_40" vType="car" speedFactor="1.05" vaporized=""/>
    <tripinfo id="EW_43" depart="43.00" departLane="4i_0" departPos="4.10" departSpeed="0.00" departDelay="0.00" arrival="133.00" arrivalLane="2o_0" arrivalPos="492.80" arrivalSpeed="12.08" duration="90.00" routeLength="995.70" waitingTime="0.00" waitingCount="0" stopTime="0.00" timeLoss="26.36" rerouteNo="0" devices="tripinfo_EW_43" vType="car" speedFactor="1.12" vaporized=""/>
    <tripinfo id="WE_34" depart="34.00" departLane="1i_0" departPos="4.10" departSpeed="0.00" departDelay="0.00" arrival="135.00" arrivalLane="2o_0" arrivalPos="492.80" arrivalSpeed="9.28" duration="101.00" routeLength="995.90" waitingTime="6.00" waitingCount="1" stopTime="0.00" timeLoss="25.34" rerouteNo="0" devices="tripinfo_WE_34" vType="car" speedFactor="0.94" vaporized=""/>
    <tripinfo id="SN_52" depart="52.00" departLane="3i_0" departPos="4.10" departSpeed="0.00" departDelay="0.00" arrival="138.00" arrivalLane="1o_0" arrivalPos="492.80" arrivalSpeed="10.16" duration="86.00" routeLength="995.70" waitingTime="0.00" waitingCount="0" stopTime="0.00" timeLoss="10.43" rerouteNo="0" devices="tripinfo_SN_52" vType="car" speedFactor="0.94" vaporized=""/>
    <tripinfo id="NS_50" depart="50.00" departLane="2i_0" departPos="4.10" departSpeed="0.00" departDelay="0.00" arrival="139.00" arrivalLane="4o_0" arrivalPos="492.80" arrivalSpeed="9.53" duration="89.00" routeLength="990.53" waitingTime="1.00" waitingCount="1" stopTime="0.00" timeLoss="12.69" rerouteNo="0" devices="tripinfo_NS_50" vType="car" speedFactor="0.93" vaporized=""/>
    <tripinfo id="SN_50" depart="50.00" departLane="3i_0" departPos="4.10" departSpeed="0.00" departDelay="0.00" arrival="139.00" arrivalLane="2o_0" arrivalPos="492.80" arrivalSpeed="9.29" duration="89.00" routeLength="990.53" waitingTime="0.00" waitingCount="0" stopTime="0.00" timeLoss="8.11" rerouteNo="0" devices="tripinfo_SN_50" vType="car" speedFactor="0.88" vaporized=""/>
    <tripinfo id="NS_53" depart="53.00" departLane="2i_0" departPos="4.10" departSpeed="0.00" departDelay="0.00" arrival="140.00" arrivalLane="1o_0" arrivalPos="492.80" arrivalSpeed="11.30" duration="87.00" routeLength="995.90" waitingTime="1.00" waitingCount="1" stopTime="0.00" timeLoss="17.50" rerouteNo="0" devices="tripinfo_NS_53" vType="car" speedFactor="1.02" vaporized=""/>
    <tripinfo id="SN_57" depart="57.00" departLane="3i_0" departPos="4.10" departSpeed="0.00" departDelay="0.00" arrival="140.00" arrivalLane="2o_0" arrivalPos="492.80" arrivalSpeed="9.96" duration="83.00" routeLength="990.53" waitingTime="0.00" waitingCount="0" stopTime="0.00" timeLoss="13.44" rerouteNo="0" devices="tripinfo_SN_57" vType="car" speedFactor="1.01" vaporized=""/>
    <tripinfo id="EW_79" depart="79.00" departLane="4i_0" departPos="4.10" departSpeed="0.00" departDelay="0.00" arrival="147.00" arrivalLane="3o_0" arrivalPos="492.80" arrivalSpeed="12.97" duration="68.00" routeLength="995.90" waitingTime="0.00" waitingCount="0" stopTime="0.00" timeLoss="7.73" rerouteNo="0" devices="tripinfo_EW_79" vType="car" speedFactor="1.18" vaporized=""/>
    <tripinfo id="WE_52" depart="52.00" departLane="1i_0" departPos="4.10" departSpeed="0.00" departDelay="0.00" arrival="149.00" arrivalLane="4o_0" arrivalPos="492.80" arrivalSpeed="10.14" duration="97.00" routeLength="995.70" waitingTime="6.00" waitingCount="2" stopTime="0.00" timeLoss="21.39" rerouteNo="0" devices="tripinfo_WE_52" vType="car" speedFactor="0.94" vaporized=""/>
    <tripinfo id="WE_53" depart="55.00" departLane="1i_0" departPos="4.10" departSpeed="0.00" departDelay="2.00" arrival="150.00" arrivalLane="4o_0" arrivalPos="492.80" arrivalSpeed="11.99" duration="95.00" routeLength="995.70" waitingTime="2.00" waitingCount="1" stopTime="0.00" timeLoss="34.09" rerouteNo="0" devices="tripinfo_WE_53" vType="car" speedFactor="1.16" vaporized=""/>
    <tripinfo id="SN_58" depart="60.00" departLane="3i_0" departPos="4.10" departSpeed="0.00" departDelay="2.00" arrival="152.00" arrivalLane="4o_0" arrivalPos="492.80" arrivalSpeed="10.68" duration="92.00" routeLength="995.90" waitingTime="4.00" waitingCount="1" stopTime="0.00" timeLoss="19.50" rerouteNo="0" devices="tripinfo_SN_58" vType="car" speedFactor="0.97" vaporized=""/>
    <tripinfo id="NS_66" depart="66.00" departLane="2i_0" departPos="4.10" departSpeed="0.00" departDelay="0.00" arrival="159.00" arrivalLane="4o_0" arrivalPos="492.80" arrivalSpeed="9.21" duration="93.00" routeLength="990.53" waitingTime="0.00" waitingCount="0" stopTime="0.00" timeLoss="13.39" rerouteNo="0" devices="tripinfo_NS_66" vType="car" speedFactor="0.89" vaporized=""/>
    <tripinfo id="SN_67" depart="67.00" departLane="3i_0" departPos="10.10" departSpeed="0.00" departDelay="0.00" arrival="164.00" arrivalLane="1o_0" arrivalPos="492.80" arrivalSpeed="9.80" duration="97.00" routeLength="989.70" waitingTime="0.00" waitingCount="0" stopTime="0.00" timeLoss="19.40" rerouteNo="0" devices="tripinfo_SN_67" vType="truck" speedFactor="0.91" vaporized=""/>
    <tripinfo id="WE_71" depart="71.00" departLane="1i_0" departPos="4.10" departSpeed="0.00" departDelay="0.00" arrival="167.00" arrivalLane="2o_0" arrivalPos="492.80" arrivalSpeed="9.51" duration="96.00" routeLength="995.90" waitingTime="8.00" waitingCount="1" stopTime="0.00" timeLoss="19.02" rerouteNo="0" devices="tripinfo_WE_71" vType="car" speedFactor="0.92" vaporized=""/>
    <tripinfo id="WE_72" depart="74.00" departLane="1i_0" departPos="4.10" departSpeed="0.00" departDelay="2.00" arrival="167.00" arrivalLane="3o_0" arrivalPos="492.80" arrivalSpeed="9.67" duration="93.00" routeLength="990.53" waitingTime="5.00" waitingCount="1" stopTime="0.00" timeLoss="18.96" rerouteNo="0" devices="tripinfo_WE_72" vType="car" speedFactor="0.95" vaporized=""/>
    <tripinfo id="SN_76" depart="77.00" departLane="3i_0" departPos="10.10" departSpeed="0.00" departDelay="1.00" arrival="170.00" arrivalLane="2o_0" arrivalPos="492.80" arrivalSpeed="11.75" duration="93.00" routeLength="984.53" waitingTime="0.00" waitingCount="0" stopTime="0.00" timeLoss="25.83" rerouteNo="0" devices="tripinfo_SN_76" vType="truck" speedFactor="1.07" vaporized=""/>
    <tripinfo id="SN_68" depart="72.00" departLane="3i_0" departPos="10.10" departSpeed="0.00" departDelay="4.00" arrival="171.00" arrivalLane="1o_0" arrivalPos="492.80" arrivalSpeed="9.99" duration="99.00" routeLength="989.70" waitingTime="2.00" waitingCount="1" stopTime="0.00" timeLoss="23.73" rerouteNo="0" devices="tripinfo_SN_68" vType="truck" speedFactor="0.94" vaporized=""/>
    <tripinfo id="NS_82" depart="82.00" departLane="2i_0" departPos="4.10" departSpeed="0.00" departDelay="0.00" arrival="173.00" arrivalLane="3o_0" arrivalPos="492.80" arrivalSpeed="10.85" duration="91.00" routeLength="995.70" waitingTime="5.00" waitingCount="2" stopTime="0.00" timeLoss="19.86" rerouteNo="0" devices="tripinfo_NS_82" vType="car" speedFactor="1.01" vaporized=""/>
    <tripinfo id="EW_96" depart="96.00" departLane="4i_0" departPos="4.10" departSpeed="0.00" departDelay="0.00" arrival="174.00" arrivalLane="3o_0" arrivalPos="492.80" arrivalSpeed="11.59" duration="78.00" routeLength="995.90" waitingTime="0.00" waitingCount="0" stopTime="0.00" timeLoss="13.62" rerouteNo="0" devices="tripinfo_EW_96" vType="car" speedFactor="1.10" vaporized=""/>
    <tripinfo id="SN_79" depart="81.00" departLane="3i_0" departPos="4.10" departSpeed="0.00" departDelay="2.00" arrival="179.00" arrivalLane="1o_0" arrivalPos="492.80" arrivalSpeed="12.37" duration="98.00" routeLength="995.70" waitingTime="8.00" waitingCount="1" stopTime="0.00" timeLoss="36.32" rerouteNo="0" devices="tripinfo_SN_79" vType="car" speedFactor="1.15" vaporized=""/>
    <tripinfo id="EW_100" depart="100.00" departLane="4i_0" departPos="4.10" departSpeed="0.00" departDelay="0.00" arrival="179.00" arrivalLane="3o_0" arrivalPos="492.80" arrivalSpeed="11.14" duration="79.00" routeLength="995.90" waitingTime="0.00" waitingCount="0" stopTime="0.00" timeLoss="13.71" rerouteNo="0" devices="tripinfo_EW_100" vType="car" speedFactor="1.09" vaporized=""/>
    <tripinfo id="WE_77" depart="77.00" departLane="1i_0" departPos="4.10" departSpeed="0.00" departDelay="0.00" arrival="182.00" arrivalLane="2o_0" arrivalPos="492.80" arrivalSpeed="10.26" duration="105.00" routeLength="995.90" waitingTime="8.00" waitingCount="4" stopTime="0.00" timeLoss="28.38" rerouteNo="0" devices="tripinfo_WE_77" vType="car" speedFactor="0.93" vaporized=""/>
    <tripinfo id="WE_83" depart="83.00" departLane="1i_0" departPos="4.10" departSpeed="0.00" departDelay="0.00" arrival="183.00" arrivalLane="2o_0" arrivalPos="492.80" arrivalSpeed="12.00" duration="100.00" routeLength="995.90" waitingTime="2.00" waitingCount="1" stopTime="0.00" timeLoss="39.60" rerouteNo="0" devices="tripinfo_WE_83" vType="car" speedFactor="1.17" vaporized=""/>
    <tripinfo id="NS_84" depart="85.00" departLane="2i_0" departPos="4.10" departSpeed="0.00" departDelay="1.00" arrival="188.00" arrivalLane="1o_0" arrivalPos="492.80" arrivalSpeed="9.84" duration="103.00" routeLength="995.90" waitingTime="11.00" waitingCount="5" stopTime="0.00" timeLoss="31.60" rerouteNo="0" devices="tripinfo_NS_84" vType="car" speedFactor="0.99" vaporized=""/>
    <tripinfo id="SN_85" depart="85.00" departLane="3i_0" departPos="4.10" departSpeed="0.00" departDelay="0.00" arrival="190.00" arrivalLane="1o_0" arrivalPos="492.80" arrivalSpeed="10.46" duration="105.00" routeLength="995.70" waitingTime="8.00" waitingCount="2" stopTime="0.00" timeLoss="35.63" rerouteNo="0" devices="tripinfo_SN_85" vType="car" speedFactor="1.02" vaporized=""/>
    <tripinfo id="WE_93" depart="94.00" departLane="1i_0" departPos="4.10" departSpeed="0.00" departDelay="1.00" arrival="190.00" arrivalLane="2o_0" arrivalPos="492.80" arrivalSpeed="9.66" duration="96.00" routeLength="995.90" waitingTime="2.00" waitingCount="1" stopTime="0.00" timeLoss="23.03" rerouteNo="0" devices="tripinfo_WE_93" vType="car" speedFactor="0.97" vaporized=""/>
    <tripinfo id="SN_109" depart="109.00" departLane="3i_0" departPos="4.10" departSpeed="0.00" departDelay="0.00" arrival="192.00" arrivalLane="1o_0" arrivalPos="492.80" arrivalSpeed="11.12" duration="83.00" routeLength="995.70" waitingTime="0.00" waitingCount="0" stopTime="0.00" timeLoss="14.99" rerouteNo="0" devices="tripinfo_SN_109" vType="car" speedFactor="1.04" vaporized=""/>
    <tripinfo id="NS_96" depart="96.00" departLane="2i_0" departPos="4.10" departSpeed="0.00" departDelay="0.00" arrival="198.00" arrivalLane="4o_0" arrivalPos="492.80" arrivalSpeed="9.13" duration="102.00" routeLength="990.53" waitingTime="7.00" waitingCount="3" stopTime="0.00" timeLoss="23.63" rerouteNo="0" devices="tripinfo_NS_96" vType="car" speedFactor="0.90" vaporized=""/>
    <tripinfo id="WE_98" depart="99.00" departLane="1i_0" departPos="4.10" departSpeed="0.00" departDelay="1.00" arrival="198.00" arrivalLane="3o_0" arrivalPos="492.80" arrivalSpeed="10.83" duration="99.00" routeLength="990.53" waitingTime="1.00" waitingCount="1" stopTime="0.00" timeLoss="30.24" rerouteNo="0" devices="tripinfo_WE_98" vType="car" speedFactor="1.03" vaporized=""/>
    <tripinfo id="WE_95" depart="97.00" departLane="1i_0" departPos="4.10" departSpeed="0.00" departDelay="2.00" arrival="200.00" arrivalLane="4o_0" arrivalPos="492.80" arrivalSpeed="11.95" duration="103.00" routeLength="995.70" waitingTime="3.00" waitingCount="2" stopTime="0.00" timeLoss="42.37" rerouteNo="0" devices="tripinfo_WE_95" vType="car" speedFactor="1.18" vaporized=""/>
    <tripinfo id="NS_102" depart="102.00" departLane="2i_0" departPos="10.10" departSpeed="0.00" departDelay="0.00" arrival="201.00" arrivalLane="1o_0" arrivalPos="492.80" arrivalSpeed="10.93" duration="99.00" routeLength="989.90" waitingTime="3.00" waitingCount="3" stopTime="0.00" timeLoss="29.80" rerouteNo="0" devices="tripinfo_NS_102" vType="truck" speedFactor="1.02" vaporized=""/>
    <tripinfo id="NS_111" depart="111.00" departLane="2i_0" departPos="4.10" departSpeed="0.00" departDelay="0.00" arrival="205.00" arrivalLane="4o_0" arrivalPos="492.80" arrivalSpeed="11.14" duration="94.00" routeLength="990.53" waitingTime="1.00" waitingCount="1" stopTime="0.00" timeLoss="29.24" rerouteNo="0" devices="tripinfo_NS_111" vType="car" speedFactor="1.09" vaporized=""/>
    <tripinfo id="SN_113" depart="113.00" departLane="3i_0" departPos="10.10" departSpeed="0.00" departDelay="0.00" arrival="205.00" arrivalLane="2o_0" arrivalPos="492.80" arrivalSpeed="10.54" duration="92.00" routeLength="984.53" waitingTime="1.00" waitingCount="1" stopTime="0.00" timeLoss="17.93" rerouteNo="0" devices="tripinfo_SN_113" vType="truck" speedFactor="0.95" vaporized=""/>
    <tripinfo id="EW_135" depart="135.00" departLane="4i_0" departPos="4.10" departSpeed="0.00" departDelay="0.00" arrival="207.00" arrivalLane="2o_0" arrivalPos="492.80" arrivalSpeed="12.40" duration="72.00" routeLength="995.70" waitingTime="0.00" waitingCount="0" stopTime="0.00" timeLoss="11.33" rerouteNo="0" devices="tripinfo_EW_135" vType="car" speedFactor="1.17" vaporized=""/>
    <tripinfo id="WE_100" depart="102.00" departLane="1i_0" departPos="4.10" departSpeed="0.00" departDelay="2.00" arrival="211.00" arrivalLane="3o_0" arrivalPos="492.80" arrivalSpeed="10.08" duration="109.00" routeLength="990.53" waitingTime="5.00" waitingCount="2" stopTime="0.00" timeLoss="34.76" rerouteNo="0" devices="tripinfo_WE_100" vType="car" speedFactor="0.96" vaporized=""/>
    <tripinfo id="SN_121" depart="121.00" departLane="3i_0" departPos="4.10" departSpeed="0.00" departDelay="0.00" arrival="215.00" arrivalLane="1o_0" arrivalPos="492.80" arrivalSpeed="8.18" duration="94.00" routeLength="995.70" waitingTime="0.00" waitingCount="0" stopTime="0.00" timeLoss="10.79" rerouteNo="0" devices="tripinfo_SN_121" vType="car" speedFactor="0.85" vaporized=""/>
    <tripinfo id="WE_113" depart="113.00" departLane="1i_0" departPos="4.10" departSpeed="0.00" departDelay="0.00" arrival="219.00" arrivalLane="2o_0" arrivalPos="492.80" arrivalSpeed="10.07" duration="106.00" routeLength="995.90" waitingTime="7.00" waitingCount="2" stopTime="0.00" timeLoss="34.94" rerouteNo="0" devices="tripinfo_WE_113" vType="car" speedFactor="1.00" vaporized=""/>
    <tripinfo id="SN_123" depart="124.00" departLane="3i_0" departPos="4.10" departSpeed="0.00" departDelay="1.00" arrival="219.00" arrivalLane="4o_0" arrivalPos="492.80" arrivalSpeed="8.73" duration="95.00" routeLength="995.90" waitingTime="0.00" waitingCount="0" stopTime="0.00" timeLoss="12.07" rerouteNo="0" devices="tripinfo_SN_123" vType="car" speedFactor="0.85" vaporized=""/>
    <tripinfo id="EW_138" depart="139.00" departLane="4i_0" departPos="4.10" departSpeed="0.00" departDelay="1.00" arrival="221.00" arrivalLane="2o_0" arrivalPos="492.80" arrivalSpeed="10.40" duration="82.00" routeLength="995.70" waitingTime="0.00" waitingCount="0" stopTime="0.00" timeLoss="12.07" rerouteNo="0" devices="tripinfo_EW_138" vType="car" speedFactor="1.02" vaporized=""/>
    <tripinfo id="EW_142" depart="142.00" departLane="4i_0" departPos="4.10" departSpeed="0.00" departDelay="0.00" arrival="222.00" arrivalLane="1o_0" arrivalPos="492.80" arrivalSpeed="11.07" duration="80.00" routeLength="990.53" waitingTime="0.00" waitingCount="0" stopTime="0.00" timeLoss="9.29" rerouteNo="0" devices="tripinfo_EW_142" vType="car" speedFactor="1.00" vaporized=""/>
    <tripinfo id="SN_151" depart="151.00" departLane="3i_0" departPos="4.10" departSpeed="0.00" departDelay="0.00" arrival="231.00" arrivalLane="1o_0" arrivalPos="492.80" arrivalSpeed="12.05" duration="80.00" routeLength="995.70" waitingTime="4.00" waitingCount="1" stopTime="0.00" timeLoss="17.73" rerouteNo="0" devices="tripinfo_SN_151" vType="car" speedFactor="1.14" vaporized=""/>
    <tripinfo id="EW_148" depart="150.00" departLane="4i_0" departPos="4.10" departSpeed="0.00" departDelay="2.00" arrival="239.00" arrivalLane="2o_0" arrivalPos="492.80" arrivalSpeed="9.95" duration="89.00" routeLength="995.70" waitingTime="0.00" waitingCount="0" stopTime="0.00" timeLoss="10.00" rerouteNo="0" devices="tripinfo_EW_148" vType="car" speedFactor="0.90" vaporized=""/>
    <tripinfo id="WE_121" depart="121.00" departLane="1i_0" departPos="4.10" departSpeed="0.00" departDelay="0.00" arrival="241.00" arrivalLane="3o_0" arrivalPos="492.80" arrivalSpeed="9.33" duration="120.00" routeLength="990.53" waitingTime="19.00" waitingCount="3" stopTime="0.00" timeLoss="39.88" rerouteNo="0" devices="tripinfo_WE_121" vType="car" speedFactor="0.88" vaporized=""/>
    <tripinfo id="NS_145" depart="145.00" departLane="2i_0" departPos="10.10" departSpeed="0.00" departDelay="0.00" arrival="244.00" arrivalLane="3o_0" arrivalPos="492.80" arrivalSpeed="11.00" duration="99.00" routeLength="989.70" waitingTime="2.00" waitingCount="2" stopTime="0.00" timeLoss="27.98" rerouteNo="0" devices="tripinfo_NS_145" vType="truck" speedFactor="1.00" vaporized=""/>
    <tripinfo id="EW_157" depart="159.00" departLane="4i_0" departPos="4.10" departSpeed="0.00" departDelay="2.00" arrival="246.00" arrivalLane="3o_0" arrivalPos="492.80" arrivalSpeed="11.07" duration="87.00" routeLength="995.90" waitingTime="1.00" waitingCount="1" stopTime="0.00" timeLoss="17.70" rerouteNo="0" devices="tripinfo_EW_157" vType="car" speedFactor="1.02" vaporized=""/>
    <tripinfo id="SN_164" depart="164.00" departLane="3i_0" departPos="10.10" departSpeed="0.00" departDelay="0.00" arrival="247.00" arrivalLane="2o_0" arrivalPos="492.80" arrivalSpeed="10.63" duration="83.00" routeLength="984.53" waitingTime="0.00" waitingCount="0" stopTime="0.00" timeLoss="11.59" rerouteNo="0" devices="tripinfo_SN_164" vType="truck" speedFactor="0.98" vaporized=""/>
    <tripinfo id="NS_166" depart="167.00" departLane="2i_0" departPos="4.10" departSpeed="0.00" departDelay="1.00" arrival="248.00" arrivalLane="3o_0" arrivalPos="492.80" arrivalSpeed="11.69" duration="81.00" routeLength="995.70" waitingTime="1.00" waitingCount="1" stopTime="0.00" timeLoss="15.29" rerouteNo="0" devices="tripinfo_NS_166" vType="car" speedFactor="1.08" vaporized=""/>
    <tripinfo id="SN_170" depart="170.00" departLane="3i_0" departPos="4.10" departSpeed="0.00" departDelay="0.00" arrival="249.00" arrivalLane="2o_0" arrivalPos="492.80" arrivalSpeed="11.41" duration="79.00" routeLength="990.53" waitingTime="0.00" waitingCount="0" stopTime="0.00" timeLoss="15.91" rerouteNo="0" devices="tripinfo_SN_170" vType="car" speedFactor="1.12" vaporized=""/>
    <tripinfo id="EW_178" depart="178.00" departLane="4i_0" departPos="4.10" departSpeed="0.00" departDelay="0.00" arrival="262.00" arrivalLane="2o_0" arrivalPos="492.80" arrivalSpeed="10.47" duration="84.00" routeLength="995.70" waitingTime="0.00" waitingCount="0" stopTime="0.00" timeLoss="11.64" rerouteNo="0" devices="tripinfo_EW_178" vType="car" speedFactor="0.99" vaporized=""/>
    <tripinfo id="WE_140" depart="140.00" departLane="1i_0" departPos="4.10" departSpeed="0.00" departDelay="0.00" arrival="263.00" arrivalLane="2o_0" arrivalPos="492.80" arrivalSpeed="11.46" duration="123.00" routeLength="995.90" waitingTime="35.00" waitingCount="3" stopTime="0.00" timeLoss="58.40" rerouteNo="0" devices="tripinfo_WE_140" vType="car" speedFactor="1.10" vaporized=""/>
    <tripinfo id="WE_172" depart="172.00" departLane="1i_0" departPos="4.10" departSpeed="0.00" departDelay="0.00" arrival="270.00" arrivalLane="2o_0" arrivalPos="492.80" arrivalSpeed="11.13" duration="98.00" routeLength="995.90" waitingTime="11.00" waitingCount="1" stopTime="0.00" timeLoss="27.72" rerouteNo="0" devices="tripinfo_WE_172" vType="car" speedFactor="1.02" vaporized=""/>
    <tripinfo id="SN_185" depart="185.00" departLane="3i_0" departPos="4.10" departSpeed="0.00" departDelay="0.00" arrival="275.00" arrivalLane="4o_0" arrivalPos="492.80" arrivalSpeed="8.67" duration="90.00" routeLength="995.90" waitingTime="0.00" waitingCount="0" stopTime="0.00" timeLoss="9.32" rerouteNo="0" devices="tripinfo_SN_185" vType="car" speedFactor="0.88" vaporized=""/>
    <tripinfo id="NS_184" depart="184.00" departLane="2i_0" departPos="4.10" departSpeed="0.00" departDelay="0.00" arrival="277.00" arrivalLane="3o_0" arrivalPos="492.80" arrivalSpeed="9.39" duration="93.00" routeLength="995.70" waitingTime="3.00" waitingCount="2" stopTime="0.00" timeLoss="17.09" rerouteNo="0" devices="tripinfo_NS_184" vType="car" speedFactor="0.94" vaporized=""/>
    <tripinfo id="SN_188" depart="188.00" departLane="3i_0" departPos="4.10" departSpeed="0.00" departDelay="0.00" arrival="278.00" arrivalLane="2o_0" arrivalPos="492.80" arrivalSpeed="10.06" duration="90.00" routeLength="990.53" waitingTime="0.00" waitingCount="0" stopTime="0.00" timeLoss="11.83" rerouteNo="0" devices="tripinfo_SN_188" vType="car" speedFactor="0.91" vaporized=""/>
    <tripinfo id="EW_195" depart="195.00" departLane="4i_0" departPos="4.10" departSpeed="0.00" departDelay="0.00" arrival="280.00" arrivalLane="2o_0" arrivalPos="492.80" arrivalSpeed="10.78" duration="85.00" routeLength="995.70" waitingTime="0.00" waitingCount="0" stopTime="0.00" timeLoss="16.40" rerouteNo="0" devices="tripinfo_EW_195" vType="car" speedFactor="1.04" vaporized=""/>
    <tripinfo id="SN_193" depart="193.00" departLane="3i_0" departPos="4.10" departSpeed="0.00" departDelay="0.00" arrival="281.00" arrivalLane="1o_0" arrivalPos="492.80" arrivalSpeed="9.73" duration="88.00" routeLength="995.70" waitingTime="0.00" waitingCount="0" stopTime="0.00" timeLoss="10.21" rerouteNo="0" devices="tripinfo_SN_193" vType="car" speedFactor="0.91" vaporized=""/>
    <tripinfo id="SN_205" depart="205.00" departLane="3i_0" departPos="4.10" departSpeed="0.00" departDelay="0.00" arrival="283.00" arrivalLane="4o_0" arrivalPos="492.80" arrivalSpeed="10.06" duration="78.00" routeLength="995.90" waitingTime="0.00" waitingCount="0" stopTime="0.00" timeLoss="8.44" rerouteNo="0" devices="tripinfo_SN_205" vType="car" speedFactor="1.02" vaporized=""/>
    <tripinfo id="WE_208" depart="208.00" departLane="1i_0" departPos="4.10" departSpeed="0.00" departDelay="0.00" arrival="292.00" arrivalLane="4o_0" arrivalPos="492.80" arrivalSpeed="10.47" duration="84.00" routeLength="995.70" waitingTime="0.00" waitingCount="0" stopTime="0.00" timeLoss="14.30" rerouteNo="0" devices="tripinfo_WE_208" vType="car" speedFactor="1.02" vaporized=""/>
    <tripinfo id="SN_211" depart="211.00" departLane="3i_0" departPos="4.10" departSpeed="0.00" departDelay="0.00" arrival="296.00" arrivalLane="4o_0" arrivalPos="492.80" arrivalSpeed="10.21" duration="85.00" routeLength="995.90" waitingTime="1.00" waitingCount="1" stopTime="0.00" timeLoss="12.49" rerouteNo="0" devices="tripinfo_SN_211" vType="car" speedFactor="0.97" vaporized=""/>
    <tripinfo id="WE_219" depart="219.00" departLane="1i_0" departPos="4.10" departSpeed="0.00" departDelay="0.00" arrival="297.00" arrivalLane="2o_0" arrivalPos="492.80" arrivalSpeed="11.71" duration="78.00" routeLength="995.90" waitingTime="0.00" waitingCount="0" stopTime="0.00" timeLoss="10.60" rerouteNo="0" devices="tripinfo_WE_219" vType="car" speedFactor="1.06" vaporized=""/>
    <tripinfo id="NS_214" depart="214.00" departLane="2i_0" departPos="4.10" departSpeed="0.00" departDelay="0.00" arrival="305.00" arrivalLane="3o_0" arrivalPos="492.80" arrivalSpeed="9.49" duration="91.00" routeLength="995.70" waitingTime="1.00" waitingCount="1" stopTime="0.00" timeLoss="15.07" rerouteNo="0" devices="tripinfo_NS_214" vType="car" speedFactor="0.94" vaporized=""/>
    <tripinfo id="EW_219" depart="219.00" departLane="4i_0" departPos="4.10" departSpeed="0.00" departDelay="0.00" arrival="307.00" arrivalLane="3o_0" arrivalPos="492.80" arrivalSpeed="10.16" duration="88.00" routeLength="995.90" waitingTime="3.00" waitingCount="1" stopTime="0.00" timeLoss="13.41" rerouteNo="0" devices="tripinfo_EW_219" vType="car" speedFactor="0.96" vaporized=""/>
    <tripinfo id="SN_231" depart="231.00" departLane="3i_0" departPos="4.10" departSpeed="0.00" departDelay="0.00" arrival="311.00" arrivalLane="2o_0" arrivalPos="492.80" arrivalSpeed="9.89" duration="80.00" routeLength="990.53" waitingTime="0.00" waitingCount="0" stopTime="0.00" timeLoss="7.99" rerouteNo="0" devices="tripinfo_SN_231" vType="car" speedFactor="0.98" vaporized=""/>