<?xml version="1.0" encoding="UTF-8"?>

<!-- generated on 2024-05-04 16:28:40 by Eclipse SUMO sumo Version 1.19.0
<configuration xmlns:xsi="http://www.w3.org/2001/XMLSchema-instance" xsi:noNamespaceSchemaLocation="http://sumo.dlr.de/xsd/sumoConfiguration.xsd">

    <input>
        <net-file value="working/./test5.net.xml"/>
        <route-files value="working/./gen_route.rou.xml"/>
    </input>

    <output>
        <tripinfo-output value="tripinfo_epi2.xml"/>
    </output>

    <report>
        <no-warnings value="true"/>
    </report>

    <traci_server>
        <remote-port value="50409"/>
    </traci_server>

</configuration>
-->

<tripinfos xmlns:xsi="http://www.w3.org/2001/XMLSchema-instance" xsi:noNamespaceSchemaLocation="http://sumo.dlr.de/xsd/tripinfo_file.xsd">
    <tripinfo id="SN_0" depart="0.00" departLane="3i_0" departPos="4.10" departSpeed="0.00" departDelay="0.00" arrival="75.00" arrivalLane="4o_0" arrivalPos="492.80" arrivalSpeed="10.48" duration="75.00" routeLength="995.90" waitingTime="0.00" waitingCount="0" stopTime="0.00" timeLoss="7.71" rerouteNo="0" devices="tripinfo_SN_0" vType="car" speedFactor="1.06" vaporized=""/>
    <tripinfo id="SN_2" depart="2.00" departLane="3i_0" departPos="4.10" departSpeed="0.00" departDelay="0.00" arrival="81.00" arrivalLane="4o_0" arrivalPos="492.80" arrivalSpeed="10.06" duration="79.00" routeLength="995.90" waitingTime="0.00" waitingCount="0" stopTime="0.00" timeLoss="9.03" rerouteNo="0" devices="tripinfo_SN_2" vType="car" speedFactor="1.01" vaporized=""/>
    <tripinfo id="SN_5" depart="5.00" departLane="3i_0" departPos="4.10" departSpeed="0.00" departDelay="0.00" arrival="83.00" arrivalLane="4o_0" arrivalPos="492.80" arrivalSpeed="11.58" duration="78.00" routeLength="995.90" waitingTime="0.00" waitingCount="0" stopTime="0.00" timeLoss="12.22" rerouteNo="0" devices="tripinfo_SN_5" vType="car" speedFactor="1.08" vaporized=""/>
    <tripinfo id="EW_2" depart="2.00" departLane="4i_0" departPos="4.10" departSpeed="0.00" departDelay="0.00" arrival="86.00" arrivalLane="1o_0" arrivalPos="492.80" arrivalSpeed="9.38" duration="84.00" routeLength="990.53" waitingTime="0.00" waitingCount="0" stopTime="0.00" timeLoss="8.80" rerouteNo="0" devices="tripinfo_EW_2" vType="car" speedFactor="0.94" vaporized=""/>
    <tripinfo id="SN_30" depart="30.00" departLane="3i_0" departPos="4.10" departSpeed="0.00" departDelay="0.00" arrival="121.00" arrivalLane="1o_0" arrivalPos="492.80" arrivalSpeed="9.32" duration="91.00" routeLength="995.70" waitingTime="0.00" waitingCount="0" stopTime="0.00" timeLoss="10.78" rerouteNo="0" devices="tripinfo_SN_30" vType="car" speedFactor="0.89" vaporized=""/>
    <tripinfo id="EW_50" depart="50.00" departLane="4i_0" departPos="10.10" departSpeed="0.00" departDelay="0.00" arrival="131.00" arrivalLane="1o_0" arrivalPos="492.80" arrivalSpeed="11.15" duration="81.00" routeLength="984.53" waitingTime="0.00" waitingCount="0" stopTime="0.00" timeLoss="12.37" rerouteNo="0" devices="tripinfo_EW_50" vType="truck" speedFactor="1.02" vaporized=""/>
    <tripinfo id="EW_56" depart="56.00" departLane="4i_0" departPos="4.10" departSpeed="0.00" departDelay="0.00" arrival="137.00" arrivalLane="3o_0" arrivalPos="492.80" arrivalSpeed="10.38" duration="81.00" routeLength="995.90" waitingTime="0.00" waitingCount="0" stopTime="0.00" timeLoss="9.20" rerouteNo="0" devices="tripinfo_EW_56" vType="car" speedFactor="0.99" vaporized=""/>
    <tripinfo id="SN_61" depart="61.00" departLane="3i_0" departPos="4.10" departSpeed="0.00" departDelay="0.00" arrival="148.00" arrivalLane="1o_0" arrivalPos="492.80" arrivalSpeed="9.36" duration="87.00" routeLength="995.70" waitingTime="0.00" waitingCount="0" stopTime="0.00" timeLoss="10.68" rerouteNo="0" devices="tripinfo_SN_61" vType="car" speedFactor="0.93" vaporized=""/>
    <tripinfo id="SN_63" depart="64.00" departLane="3i_0" departPos="4.10" departSpeed="0.00" departDelay="1.00" arrival="152.00" arrivalLane="2o_0" arrivalPos="492.80" arrivalSpeed="8.83" duration="88.00" routeLength="990.53" waitingTime="0.00" waitingCount="0" stopTime="0.00" timeLoss="7.96" rerouteNo="0" devices="tripinfo_SN_63" vType="car" speedFactor="0.88" vaporized=""/>
    <tripinfo id="SN_77" depart="77.00" departLane="3i_0" departPos="4.10" departSpeed="0.00" departDelay="0.00" arrival="155.00" arrivalLane="2o_0" arrivalPos="492.80" arrivalSpeed="11.14" duration="78.00" routeLength="990.53" waitingTime="0.00" waitingCount="0" stopTime="0.00" timeLoss="8.14" rerouteNo="0" devices="tripinfo_SN_77" vType="car" speedFactor="1.01" vaporized=""/>
    <tripinfo id="SN_86" depart="86.00" departLane="3i_0" departPos="4.10" departSpeed="0.00" departDelay="0.00" arrival="168.00" arrivalLane="4o_0" arrivalPos="492.80" arrivalSpeed="10.33" duration="82.00" routeLength="995.90" waitingTime="0.00" waitingCount="0" stopTime="0.00" timeLoss="7.57" rerouteNo="0" devices="tripinfo_SN_86" vType="car" speedFactor="0.95" vaporized=""/>
    <tripinfo id="SN_78" depart="79.00" departLane="3i_0" departPos="4.10" departSpeed="0.00" departDelay="1.00" arrival="169.00" arrivalLane="1o_0" arrivalPos="492.80" arrivalSpeed="8.98" duration="90.00" routeLength="995.70" waitingTime="0.00" waitingCount="0" stopTime="0.00" timeLoss="9.99" rerouteNo="0" devices="tripinfo_SN_78" vType="car" speedFactor="0.89" vaporized=""/>
    <tripinfo id="SN_95" depart="95.00" departLane="3i_0" departPos="4.10" departSpeed="0.00" departDelay="0.00" arrival="180.00" arrivalLane="1o_0" arrivalPos="492.80" arrivalSpeed="9.69" duration="85.00" routeLength="995.70" waitingTime="0.00" waitingCount="0" stopTime="0.00" timeLoss="9.03" rerouteNo="0" devices="tripinfo_SN_95" vType="car" speedFactor="0.93" vaporized=""/>
    <tripinfo id="SN_102" depart="102.00" departLane="3i_0" departPos="10.10" departSpeed="0.00" departDelay="0.00" arrival="182.00" arrivalLane="4o_0" arrivalPos="492.80" arrivalSpeed="11.92" duration="80.00" routeLength="989.90" waitingTime="0.00" waitingCount="0" stopTime="0.00" timeLoss="12.51" rerouteNo="0" devices="tripinfo_SN_102" vType="truck" speedFactor="1.08" vaporized=""/>
    <tripinfo id="EW_107" depart="107.00" departLane="4i_0" departPos="10.10" departSpeed="0.00" departDelay="0.00" arrival="191.00" arrivalLane="2o_0" arrivalPos="492.80" arrivalSpeed="11.61" duration="84.00" routeLength="989.70" waitingTime="0.00" waitingCount="0" stopTime="0.00" timeLoss="17.72" rerouteNo="0" devices="tripinfo_EW_107" vType="truck" speedFactor="1.09" vaporized=""/>
    <tripinfo id="EW_108" depart="111.00" departLane="4i_0" departPos="4.10" departSpeed="0.00" departDelay="3.00" arrival="197.00" arrivalLane="1o_0" arrivalPos="492.80" arrivalSpeed="9.94" duration="86.00" routeLength="990.53" waitingTime="0.00" waitingCount="0" stopTime="0.00" timeLoss="14.89" rerouteNo="0" devices="tripinfo_EW_108" vType="car" speedFactor="0.99" vaporized=""/>
    <tripinfo id="EW_118" depart="118.00" departLane="4i_0" departPos="4.10" departSpeed="0.00" departDelay="0.00" arrival="198.00" arrivalLane="1o_0" arrivalPos="492.80" arrivalSpeed="12.48" duration="80.00" routeLength="990.53" waitingTime="0.00" waitingCount="0" stopTime="0.00" timeLoss="20.51" rerouteNo="0" devices="tripinfo_EW_118" vType="car" speedFactor="1.18" vaporized=""/>
    <tripinfo id="EW_122" depart="122.00" departLane="4i_0" departPos="4.10" departSpeed="0.00" departDelay="0.00" arrival="198.00" arrivalLane="2o_0" arrivalPos="492.80" arrivalSpeed="11.35" duration="76.00" routeLength="995.70" waitingTime="0.00" waitingCount="0" stopTime="0.00" timeLoss="11.05" rerouteNo="0" devices="tripinfo_EW_122" vType="car" speedFactor="1.10" vaporized=""/>
    <tripinfo id="SN_135" depart="137.00" departLane="3i_0" departPos="4.10" departSpeed="0.00" departDelay="2.00" arrival="213.00" arrivalLane="2o_0" arrivalPos="492.80" arrivalSpeed="10.58" duration="76.00" routeLength="990.53" waitingTime="0.00" waitingCount="0" stopTime="0.00" timeLoss="7.75" rerouteNo="0" devices="tripinfo_SN_135" vType="car" speedFactor="1.04" vaporized=""/>
    <tripinfo id="EW_137" depart="137.00" departLane="4i_0" departPos="10.10" departSpeed="0.00" departDelay="0.00" arrival="218.00" arrivalLane="1o_0" arrivalPos="492.80" arrivalSpeed="11.20" duration="81.00" routeLength="984.53" waitingTime="0.00" waitingCount="0" stopTime="0.00" timeLoss="11.84" rerouteNo="0" devices="tripinfo_EW_137" vType="truck" speedFactor="1.02" vaporized=""/>
    <tripinfo id="EW_159" depart="159.00" departLane="4i_0" departPos="4.10" departSpeed="0.00" departDelay="0.00" arrival="227.00" arrivalLane="1o_0" arrivalPos="492.80" arrivalSpeed="11.88" duration="68.00" routeLength="990.53" waitingTime="0.00" waitingCount="0" stopTime="0.00" timeLoss="7.71" rerouteNo="0" devices="tripinfo_EW_159" vType="car" speedFactor="1.17" vaporized=""/>
    <tripinfo id="EW_173" depart="173.00" departLane="4i_0" departPos="4.10" departSpeed="0.00" departDelay="0.00" arrival="245.00" arrivalLane="2o_0" arrivalPos="492.80" arrivalSpeed="12.25" duration="72.00" routeLength="995.70" waitingTime="0.00" waitingCount="0" stopTime="0.00" timeLoss="9.67" rerouteNo="0" devices="tripinfo_EW_173" vType="car" speedFactor="1.14" vaporized=""/>
    <tripinfo id="EW_176" depart="176.00" departLane="4i_0" departPos="4.10" departSpeed="0.00" departDelay="0.00" arrival="254.00" arrivalLane="1o_0" arrivalPos="492.80" arrivalSpeed="11.10" duration="78.00" routeLength="990.53" waitingTime="0.00" waitingCount="0" stopTime="0.00" timeLoss="8.54" rerouteNo="0" devices="tripinfo_EW_176" vType="car" speedFactor="1.02" vaporized=""/>
    <tripinfo id="SN_162" depart="162.00" departLane="3i_0" departPos="10.10" departSpeed="0.00" departDelay="0.00" arrival="258.00" arrivalLane="2o_0" arrivalPos="492.80" arrivalSpeed="11.14" duration="96.00" routeLength="984.53" waitingTime="6.00" waitingCount="1" stopTime="0.00" timeLoss="28.77" rerouteNo="0" devices="tripinfo_SN_162" vType="truck" speedFactor="1.05" vaporized=""/>
    <tripinfo id="SN_177" depart="177.00" departLane="3i_0" departPos="4.10" departSpeed="0.00" departDelay="0.00" arrival="262.00" arrivalLane="4o_0" arrivalPos="492.80" arrivalSpeed="10.99" duration="85.00" routeLength="995.90" waitingTime="0.00" waitingCount="0" stopTime="0.00" timeLoss="19.16" rerouteNo="0" devices="tripinfo_SN_177" vType="car" speedFactor="1.08" vaporized=""/>
    <tripinfo id="SN_147" depart="147.00" departLane="3i_0" departPos="4.10" departSpeed="0.00" departDelay="0.00" arrival="264.00" arrivalLane="1o_0" arrivalPos="492.80" arrivalSpeed="9.20" duration="117.00" routeLength="995.70" waitingTime="22.00" waitingCount="1" stopTime="0.00" timeLoss="36.34" rerouteNo="0" devices="tripinfo_SN_147" vType="car" speedFactor="0.88" vaporized=""/>
    <tripinfo id="SN_167" depart="167.00" departLane="3i_0" departPos="4.10" departSpeed="0.00" departDelay="0.00" arrival="264.00" arrivalLane="2o_0" arrivalPos="492.80" arrivalSpeed="10.72" duration="97.00" routeLength="990.53" waitingTime="5.00" waitingCount="1" stopTime="0.00" timeLoss="25.82" rerouteNo="0" devices="tripinfo_SN_167" vType="car" speedFactor="1.00" vaporized=""/>
    <tripinfo id="SN_192" depart="192.00" departLane="3i_0" departPos="4.10" departSpeed="0.00" departDelay="0.00" arrival="271.00" arrivalLane="1o_0" arrivalPos="492.80" arrivalSpeed="10.31" duration="79.00" routeLength="995.70" waitingTime="0.00" waitingCount="0" stopTime="0.00" timeLoss="9.59" rerouteNo="0" devices="tripinfo_SN_192" vType="car" speedFactor="1.02" vaporized=""/>
    <tripinfo id="SN_184" depart="184.00" departLane="3i_0" departPos="4.10" departSpeed="0.00" departDelay="0.00" arrival="274.00" arrivalLane="2o_0" arrivalPos="492.80" arrivalSpeed="9.22" duration="90.00" routeLength="990.53" waitingTime="0.00" waitingCount="0" stopTime="0.00" timeLoss="9.79" rerouteNo="0" devices="tripinfo_SN_184" vType="car" speedFactor="0.88" vaporized=""/>
    <tripinfo id="SN_186" depart="186.00" departLane="3i_0" departPos="4.10" departSpeed="0.00" departDelay="0.00" arrival="276.00" arrivalLane="2o_0" arrivalPos="492.80" arrivalSpeed="9.72" duration="90.00" routeLength="990.53" waitingTime="0.00" waitingCount="0" stopTime="0.00" timeLoss="11.77" rerouteNo="0" devices="tripinfo_SN_186" vType="car" speedFactor="0.91" vaporized=""/>
    <tripinfo id="SN_194" depart="194.00" departLane="3i_0" departPos="4.10" departSpeed="0.00" departDelay="0.00" arrival="276.00" arrivalLane="4o_0" arrivalPos="492.80" arrivalSpeed="10.40" duration="82.00" routeLength="995.90" waitingTime="1.00" waitingCount="1" stopTime="0.00" timeLoss="9.23" rerouteNo="0" devices="tripinfo_SN_194" vType="car" speedFactor="0.97" vaporized=""/>
    <tripinfo id="SN_197" depart="198.00" departLane="3i_0" departPos="4.10" departSpeed="0.00" departDelay="1.00" arrival="281.00" arrivalLane="2o_0" arrivalPos="492.80" arrivalSpeed="10.30" duration="83.00" routeLength="990.53" waitingTime="0.00" waitingCount="0" stopTime="0.00" timeLoss="8.48" rerouteNo="0" devices="tripinfo_SN_197" vType="car" speedFactor="0.96" vaporized=""/>
    <tripinfo id="SN_200" depart="201.00" departLane="3i_0" departPos="4.10" departSpeed="0.00" departDelay="1.00" arrival="283.00" arrivalLane="2o_0" arrivalPos="492.80" arrivalSpeed="11.10" duration="82.00" routeLength="990.53" waitingTime="0.00" waitingCount="0" stopTime="0.00" timeLoss="12.92" rerouteNo="0" devices="tripinfo_SN_200" vType="car" speedFactor="1.03" vaporized=""/>
    <tripinfo id="SN_204" depart="204.00" departLane="3i_0" departPos="4.10" departSpeed="0.00" departDelay="0.00" arrival="284.00" arrivalLane="2o_0" arrivalPos="492.80" arrivalSpeed="11.44" duration="80.00" routeLength="990.53" waitingTime="0.00" waitingCount="0" stopTime="0.00" timeLoss="15.27" rerouteNo="0" devices="tripinfo_SN_204" vType="car" speedFactor="1.09" vaporized=""/>
    <tripinfo id="EW_195" depart="195.00" departLane="4i_0" departPos="4.10" departSpeed="0.00" departDelay="0.00" arrival="289.00" arrivalLane="2o_0" arrivalPos="492.80" arrivalSpeed="9.35" duration="94.00" routeLength="995.70" waitingTime="4.00" waitingCount="1" stopTime="0.00" timeLoss="18.27" rerouteNo="0" devices="tripinfo_EW_195" vType="car" speedFactor="0.94" vaporized=""/>
    <tripinfo id="SN_205" depart="208.00" departLane="3i_0" departPos="10.10" departSpeed="0.00" departDelay="3.00" arrival="290.00" arrivalLane="4o_0" arrivalPos="492.80" arrivalSpeed="10.89" duration="82.00" routeLength="989.90" waitingTime="0.00" waitingCount="0" stopTime="0.00" timeLoss="12.54" rerouteNo="0" devices="tripinfo_SN_205" vType="truck" speedFactor="1.02" vaporized=""/>
    <tripinfo id="SN_208" depart="212.00" departLane="3i_0" departPos="4.10" departSpeed="0.00" departDelay="4.00" arrival="295.00" arrivalLane="4o_0" arrivalPos="492.80" arrivalSpeed="10.73" duration="83.00" routeLength="995.90" waitingTime="0.00" waitingCount="0" stopTime="0.00" timeLoss="12.06" rerouteNo="0" devices="tripinfo_SN_208" vType="car" speedFactor="1.00" vaporized=""/>
    <tripinfo id="EW_213" depart="213.00" departLane="4i_0" departPos="4.10" departSpeed="0.00" departDelay="0.00" arrival="295.00" arrivalLane="1o_0" arrivalPos="492.80" arrivalSpeed="10.07" duration="82.00" routeLength="990.53" waitingTime="0.00" waitingCount="0" stopTime="0.00" timeLoss="8.58" rerouteNo="0" devices="tripinfo_EW_213" vType="car" speedFactor="0.97" vaporized=""/>
    <tripinfo id="EW_222" depart="222.00" departLane="4i_0" departPos="4.10" departSpeed="0.00" departDelay="0.00" arrival="301.00" arrivalLane="1o_0" arrivalPos="492.80" arrivalSpeed="11.00" duration="79.00" routeLength="990.53" waitingTime="0.00" waitingCount="0" stopTime="0.00" timeLoss="8.40" rerouteNo="0" devices="tripinfo_EW_222" vType="car" speedFactor="1.00" vaporized=""/>
    <tripinfo id="SN_230" depart="230.00" departLane="3i_0" departPos="4.10" departSpeed="0.00" departDelay="0.00" arrival="318.00" arrivalLane="4o_0" arrivalPos="492.80" arrivalSpeed="9.87" duration="88.00" routeLength="995.90" waitingTime="0.00" waitingCount="0" stopTime="0.00" timeLoss="8.56" rerouteNo="0" devices="tripinfo_SN_230" vType="car" speedFactor="0.89" vaporized=""/>
    <tripinfo id="SN_240" depart="241.00" departLane="3i_0" departPos="4.10" departSpeed="0.00" departDelay="1.00" arrival="320.00" arrivalLane="4o_0" arrivalPos="492.80" arrivalSpeed="10.90" duration="79.00" routeLength="995.90" waitingTime="0.00" waitingCount="0" stopTime="0.00" timeLoss="13.60" rerouteNo="0" devices="tripinfo_SN_240" vType="car" speedFactor="1.09" vaporized=""/>
    <tripinfo id="SN_236" depart="238.00" departLane="3i_0" departPos="4.10" departSpeed="0.00" departDelay="2.00" arrival="326.00" arrivalLane="2o_0" arrivalPos="492.80" arrivalSpeed="9.19" duration="88.00" routeLength="990.53" waitingTime="0.00" waitingCount="0" stopTime="0.00" timeLoss="11.26" rerouteNo="0" devices="tripinfo_SN_236" vType="car" speedFactor="0.92" vaporized=""/>
    <tripinfo id="SN_235" depart="235.00" departLane="3i_0" departPos="4.10" departSpeed="0.00" departDelay="0.00" arrival="331.00" arrivalLane="1o_0" arrivalPos="492.80" arrivalSpeed="8.56" duration="96.00" routeLength="995.70" waitingTime="0.00" waitingCount="0" stopTime="0.00" timeLoss="10.58" rerouteNo="0" devices="tripinfo_SN_235" vType="car" speedFactor="0.83" vaporized=""/>
    <tripinfo id="SN_243" depart="244.00" departLane="3i_0" departPos="4.10" departSpeed="0.00" departDelay="1.00" arrival="332.00" arrivalLane="1o_0" arrivalPos="492.80" arrivalSpeed="10.85" duration="88.00" routeLength="995.70" waitingTime="0.00" waitingCount="0" stopTime="0.00" timeLoss="17.93" rerouteNo="0" devices="tripinfo_SN_243" vType="car" speedFactor="1.01" vaporized=""/>
    <tripinfo id="SN_244" depart="247.00" departLane="3i_0" departPos="4.10" departSpeed="0.00" departDelay="3.00" arrival="335.00" arrivalLane="4o_0" arrivalPos="492.80" arrivalSpeed="9.46" duration="88.00" routeLength="995.90" waitingTime="0.00" waitingCount="0" stopTime="0.00" timeLoss="9.30" rerouteNo="0" devices="tripinfo_SN_244" vType="car" speedFactor="0.91" vaporized=""/>
    <tripinfo id="SN_263" depart="263.00" departLane="3i_0" departPos="4.10" departSpeed="0.00" departDelay="0.00" arrival="345.00" arrivalLane="1o_0" arrivalPos="492.80" arrivalSpeed="10.53" duration="82.00" routeLength="995.70" waitingTime="0.00" waitingCount="0" stopTime="0.00" timeLoss="9.04" rerouteNo="0" devices="tripinfo_SN_263" vType="car" speedFactor="0.97" vaporized=""/>
    <tripinfo id="EW_275" depart="276.00" departLane="4i_0" departPos="4.10" departSpeed="0.00" departDelay="1.00" arrival="361.00" arrivalLane="2o_0" arrivalPos="492.80" arrivalSpeed="10.44" duration="85.00" routeLength="995.70" waitingTime="0.00" waitingCount="0" stopTime="0.00" timeLoss="10.04" rerouteNo="0" devices="tripinfo_EW_275" vType="car" speedFactor="0.95" vaporized=""/>
    <tripinfo id="EW_287" depart="287.00" departLane="4i_0" departPos="4.10" departSpeed="0.00" departDelay="0.00" arrival="369.00" arrivalLane="3o_0" arrivalPos="492.80" arrivalSpeed="10.05" duration="82.00" routeLength="995.90" waitingTime="0.00" waitingCount="0" stopTime="0.00" timeLoss="7.63" rerouteNo="0" devices="tripinfo_EW_287" vType="car" speedFactor="0.96" vaporized=""/>
    <tripinfo id="EW_293" depart="293.00" departLane="4i_0" departPos="4.10" departSpeed="0.00" departDelay="0.00" arrival="374.00" arrivalLane="2o_0" arrivalPos="492.80" arrivalSpeed="10.50" duration="81.00" routeLength="995.70" waitingTime="0.00" waitingCount="0" stopTime="0.00" timeLoss="10.65" rerouteNo="0" devices="tripinfo_EW_293" vType="car" speedFactor="1.01" vaporized=""/>
    <tripinfo id="EW_298" depart="298.00" departLane="4i_0" departPos="4.10" departSpeed="0.00" departDelay="0.00" arrival="377.00" arrivalLane="1o_0" arrivalPos="492.80" arrivalSpeed="10.17" duration="79.00" routeLength="990.53" waitingTime="0.00" waitingCount="0" stopTime="0.00" timeLoss="8.19" rerouteNo="0" devices="tripinfo_EW_298" vType="car" speedFactor="1.00" vaporized=""/>
    <tripinfo id="EW_300" depart="303.00" departLane="4i_0" departPos="4.10" departSpeed="0.00" departDelay="3.00" arrival="380.00" arrivalLane="1o_0" arrivalPos="492.80" arrivalSpeed="10.61" duration="77.00" routeLength="990.53" waitingTime="1.00" waitingCount="1" stopTime="0.00" timeLoss="10.83" rerouteNo="0" devices="tripinfo_EW_300" vType="car" speedFactor="1.07" vaporized=""/>
    <tripinfo id="EW_299" depart="301.00" departLane="4i_0" departPos="4.10" departSpeed="0.00" departDelay="2.00" arrival="383.00" arrivalLane="2o_0" arrivalPos="492.80" arrivalSpeed="10.68" duration="82.00" routeLength="995.70" waitingTime="0.00" waitingCount="0" stopTime="0.00" timeLoss="10.08" rerouteNo="0" devices="tripinfo_EW_299" vType="car" speedFactor="0.99" vaporized=""/>
    <tripinfo id="SN_286" depart="286.00" departLane="3i_0" departPos="4.10" departSpeed="0.00" departDelay="0.00" arrival="384.00" arrivalLane="1o_0" arrivalPos="492.80" arrivalSpeed="11.62" duration="98.00" routeLength="995.70" waitingTime="18.00" waitingCount="1" stopTime="0.00" timeLoss="31.31" rerouteNo="0" devices="tripinfo_SN_286" vType="car" speedFactor="1.06" vaporized=""/>
    <tripinfo id="WE_6" depart="6.00" departLane="1i_0" departPos="4.10" departSpeed="0.00" departDelay="0.00" arrival="385.00" arrivalLane="3o_0" arrivalPos="492.80" arrivalSpeed="10.80" duration="379.00" routeLength="981.50" waitingTime="301.00" waitingCount="1" stopTime="0.00" timeLoss="311.27" rerouteNo="0" devices="tripinfo_WE_6" vType="car" speedFactor="1.03" vaporized=""/>
    <tripinfo id="SN_297" depart="297.00" departLane="3i_0" departPos="4.10" departSpeed="0.00" departDelay="0.00" arrival="387.00" arrivalLane="4o_0" arrivalPos="492.80" arrivalSpeed="12.81" duration="90.00" routeLength="995.90" waitingTime="6.00" waitingCount="1" stopTime="0.00" timeLoss="29.18" rerouteNo="0" devices="tripinfo_SN_297" vType="car" speedFactor="1.18" vaporized=""/>
    <tripinfo id="SN_294" depart="294.00" departLane="3i_0" departPos="4.10" departSpeed="0.00" departDelay="0.00" arrival="388.00" arrivalLane="2o_0" arrivalPos="492.80" arrivalSpeed="11.82" duration="94.00" routeLength="990.53" waitingTime="6.00" waitingCount="1" stopTime="0.00" timeLoss="29.44" rerouteNo="0" devices="tripinfo_SN_294" vType="car" speedFactor="1.10" vaporized=""/>
    <tripinfo id="SN_289" depart="290.00" departLane="3i_0" departPos="10.10" departSpeed="0.00" departDelay="1.00" arrival="392.00" arrivalLane="1o_0" arrivalPos="492.80" arrivalSpeed="10.30" duration="102.00" routeLength="989.70" waitingTime="7.00" waitingCount="1" stopTime="0.00" timeLoss="28.66" rerouteNo="0" devices="tripinfo_SN_289" vType="truck" speedFactor="0.96" vaporized=""/>
    <tripinfo id="SN_303" depart="306.00" departLane="3i_0" departPos="4.10" departSpeed="0.00" departDelay="3.00" arrival="395.00" arrivalLane="2o_0" arrivalPos="492.80" arrivalSpeed="11.62" duration="89.00" routeLength="990.53" waitingTime="0.00" waitingCount="0" stopTime="0.00" timeLoss="24.89" rerouteNo="0" devices="tripinfo_SN_303" vType="car" speedFactor="1.10" vaporized=""/>
    <tripinfo id="SN_302" depart="302.00" departLane="3i_0" departPos="10.10" departSpeed="0.00" departDelay="0.00" arrival="398.00" arrivalLane="4o_0" arrivalPos="492.80" arrivalSpeed="10.23" duration="96.00" routeLength="989.90" waitingTime="0.00" waitingCount="0" stopTime="0.00" timeLoss="23.38" rerouteNo="0" devices="tripinfo_SN_302" vType="truck" speedFactor="0.97" vaporized=""/>
    <tripinfo id="SN_310" depart="310.00" departLane="3i_0" departPos="4.10" departSpeed="0.00" departDelay="0.00" arrival="399.00" arrivalLane="2o_0" arrivalPos="492.80" arrivalSpeed="11.47" duration="89.00" routeLength="990.53" waitingTime="0.00" waitingCount="0" stopTime="0.00" timeLoss="22.28" rerouteNo="0" devices="tripinfo_SN_310" vType="car" speedFactor="1.06" vaporized=""/>
    <tripinfo id="EW_321" depart="321.00" departLane="4i_0" departPos="4.10" departSpeed="0.00" departDelay="0.00" arrival="407.00" arrivalLane="2o_0" arrivalPos="492.80" arrivalSpeed="11.59" duration="86.00" routeLength="995.70" waitingTime="9.00" waitingCount="1" stopTime="0.00" timeLoss="22.79" rerouteNo="0" devices="tripinfo_EW_321" vType="car" speedFactor="1.12" vaporized=""/>
    <tripinfo id="EW_333" depart="335.00" departLane="4i_0" departPos="4.10" departSpeed="0.00" departDelay="2.00" arrival="414.00" arrivalLane="1o_0" arrivalPos="492.80" arrivalSpeed="10.75" duration="79.00" routeLength="990.53" waitingTime="0.00" waitingCount="0" stopTime="0.00" timeLoss="8.55" rerouteNo="0" devices="tripinfo_EW_333" vType="car" speedFactor="1.01" vaporized=""/>
    <tripinfo id="EW_330" depart="330.00" departLane="4i_0" departPos="4.10" departSpeed="0.00" departDelay="0.00" arrival="415.00" arrivalLane="3o_0" arrivalPos="492.80" arrivalSpeed="10.51" duration="85.00" routeLength="995.90" waitingTime="0.00" waitingCount="0" stopTime="0.00" timeLoss="11.17" rerouteNo="0" devices="tripinfo_EW_330" vType="car" speedFactor="0.96" vaporized=""/>
    <tripinfo id="EW_348" depart="348.00" departLane="4i_0" departPos="4.10" departSpeed="0.00" departDelay="0.00" arrival="420.00" arrivalLane="1o_0" arrivalPos="492.80" arrivalSpeed="12.23" duration="72.00" routeLength="990.53" waitingTime="0.00" waitingCount="0" stopTime="0.00" timeLoss="8.09" rerouteNo="0" devices="tripinfo_EW_348" vType="car" speedFactor="1.11" vaporized=""/>
    <tripinfo id="SN_315" depart="315.00" departLane="3i_0" departPos="4.10" departSpeed="0.00" departDelay="0.00" arrival="423.00" arrivalLane="1o_0" arrivalPos="492.80" arrivalSpeed="12.36" duration="108.00" routeLength="995.70" waitingTime="21.00" waitingCount="1" stopTime="0.00" timeLoss="46.05" rerouteNo="0" devices="tripinfo_SN_315" vType="car" speedFactor="1.15" vaporized=""/>
    <tripinfo id="SN_332" depart="332.00" departLane="3i_0" departPos="4.10" departSpeed="0.00" departDelay="0.00" arrival="424.00" arrivalLane="4o_0" arrivalPos="492.80" arrivalSpeed="13.41" duration="92.00" routeLength="995.90" waitingTime="17.00" waitingCount="1" stopTime="0.00" timeLoss="34.42" rerouteNo="0" devices="tripinfo_SN_332" vType="car" speedFactor="1.23" vaporized=""/>
    <tripinfo id="SN_326" depart="326.00" departLane="3i_0" departPos="4.10" departSpeed="0.00" departDelay="0.00" arrival="429.00" arrivalLane="2o_0" arrivalPos="492.80" arrivalSpeed="10.57" duration="103.00" routeLength="990.53" waitingTime="18.00" waitingCount="1" stopTime="0.00" timeLoss="34.27" rerouteNo="0" devices="tripinfo_SN_326" vType="car" speedFactor="1.03" vaporized=""/>
    <tripinfo id="NS_66" depart="66.00" departLane="2i_0" departPos="10.10" departSpeed="0.00" departDelay="0.00" arrival="449.00" arrivalLane="4o_0" arrivalPos="492.80" arrivalSpeed="10.30" duration="383.00" routeLength="975.50" waitingTime="301.00" waitingCount="1" stopTime="0.00" timeLoss="314.80" rerouteNo="0" devices="tripinfo_NS_66" vType="truck" speedFactor="0.97" vaporized=""/>
    <tripinfo id="EW_357" depart="357.00" departLane="4i_0" departPos="4.10" departSpeed="0.00" departDelay="0.00" arrival="452.00" arrivalLane="3o_0" arrivalPos="492.80" arrivalSpeed="11.71" duration="95.00" routeLength="995.90" waitingTime="18.00" waitingCount="1" stopTime="0.00" timeLoss="32.11" rerouteNo="0" devices="tripinfo_EW_357" vType="car" speedFactor="1.13" vaporized=""/>
    <tripinfo id="EW_368" depart="368.00" departLane="4i_0" departPos="4.10" departSpeed="0.00" departDelay="0.00" arrival="454.00" arrivalLane="3o_0" arrivalPos="492.80" arrivalSpeed="12.16" duration="86.00" routeLength="995.90" waitingTime="9.00" waitingCount="1" stopTime="0.00" timeLoss="23.62" rerouteNo="0" devices="tripinfo_EW_368" vType="car" speedFactor="1.14" vaporized=""/>
    <tripinfo id="SN_369" depart="369.00" departLane="3i_0" departPos="4.10" departSpeed="0.00" departDelay="0.00" arrival="458.00" arrivalLane="4o_0" arrivalPos="492.80" arrivalSpeed="9.57" duration="89.00" routeLength="995.90" waitingTime="0.00" waitingCount="0" stopTime="0.00" timeLoss="8.92" rerouteNo="0" devices="tripinfo_SN_369" vType="car" speedFactor="0.89" vaporized=""/>
    <tripinfo id="SN_361" depart="361.00" departLane="3i_0" departPos="4.10" departSpeed="0.00" departDelay="0.00" arrival="467.00" arrivalLane="2o_0" arrivalPos="492.80" arrivalSpeed="7.39" duration="106.00" routeLength="990.53" waitingTime="0.00" waitingCount="0" stopTime="0.00" timeLoss="10.10" rerouteNo="0" devices="tripinfo_SN_361" vType="car" speedFactor="0.73" vaporized=""/>
    <tripinfo id="EW_350" depart="351.00" departLane="4i_0" departPos="4.10" departSpeed="0.00" departDelay="1.00" arrival="469.00" arrivalLane="2o_0" arrivalPos="492.80" arrivalSpeed="9.30" duration="118.00" routeLength="995.70" waitingTime="20.00" waitingCount="1" stopTime="0.00" timeLoss="42.28" rerouteNo="0" devices="tripinfo_EW_350" vType="car" speedFactor="0.94" vaporized=""/>
    <tripinfo id="SN_399" depart="399.00" departLane="3i_0" departPos="4.10" departSpeed="0.00" departDelay="0.00" arrival="491.00" arrivalLane="2o_0" arrivalPos="492.80" arrivalSpeed="11.24" duration="92.00" routeLength="990.53" waitingTime="9.00" waitingCount="1" stopTime="0.00" timeLoss="26.04" rerouteNo="0" devices="tripinfo_SN_399" vType="car" speedFactor="1.08" vaporized=""/>
    <tripinfo id="EW_404" depart="404.00" departLane="4i_0" departPos="4.10" departSpeed="0.00" departDelay="0.00" arrival="492.00" arrivalLane="1o_0" arrivalPos="492.80" arrivalSpeed="9.64" duration="88.00" routeLength="990.53" waitingTime="0.00" waitingCount="0" stopTime="0.00" timeLoss="8.10" rerouteNo="0" devices="tripinfo_EW_404" vType="car" speedFactor="0.88" vaporized=""/>
    <tripinfo id="SN_408" depart="408.00" departLane="3i_0" departPos="4.10" departSpeed="0.00" departDelay="0.00" arrival="493.00" arrivalLane="4o_0" arrivalPos="492.80" arrivalSpeed="12.44" duration="85.00" routeLength="995.90" waitingTime="4.00" waitingCount="1" stopTime="0.00" timeLoss="21.50" rerouteNo="0" devices="tripinfo_SN_408" vType="car" speedFactor="1.13" vaporized=""/>