<?xml version="1.0" encoding="UTF-8"?>

<!-- generated on 2024-05-04 16:31:13 by Eclipse SUMO sumo Version 1.19.0
<configuration xmlns:xsi="http://www.w3.org/2001/XMLSchema-instance" xsi:noNamespaceSchemaLocation="http://sumo.dlr.de/xsd/sumoConfiguration.xsd">

    <input>
        <net-file value="working/./test5.net.xml"/>
        <route-files value="working/./gen_route.rou.xml"/>
    </input>

    <output>
        <tripinfo-output value="tripinfo_epi5.xml"/>
    </output>

    <report>
        <no-warnings value="true"/>
    </report>

    <traci_server>
        <remote-port value="50430"/>
    </traci_server>

</configuration>
-->

<tripinfos xmlns:xsi="http://www.w3.org/2001/XMLSchema-instance" xsi:noNamespaceSchemaLocation="http://sumo.dlr.de/xsd/tripinfo_file.xsd">
    <tripinfo id="NS_1" depart="1.00" departLane="2i_0" departPos="4.10" departSpeed="0.00" departDelay="0.00" arrival="76.00" arrivalLane="4o_0" arrivalPos="492.80" arrivalSpeed="11.75" duration="75.00" routeLength="990.53" waitingTime="0.00" waitingCount="0" stopTime="0.00" timeLoss="8.00" rerouteNo="0" devices="tripinfo_NS_1" vType="car" speedFactor="1.06" vaporized=""/>
    <tripinfo id="WE_3" depart="3.00" departLane="1i_0" departPos="4.10" departSpeed="0.00" departDelay="0.00" arrival="86.00" arrivalLane="3o_0" arrivalPos="492.80" arrivalSpeed="9.97" duration="83.00" routeLength="990.53" waitingTime="0.00" waitingCount="0" stopTime="0.00" timeLoss="7.56" rerouteNo="0" devices="tripinfo_WE_3" vType="car" speedFactor="0.94" vaporized=""/>
    <tripinfo id="NS_14" depart="14.00" departLane="2i_0" departPos="4.10" departSpeed="0.00" departDelay="0.00" arrival="90.00" arrivalLane="4o_0" arrivalPos="492.80" arrivalSpeed="10.56" duration="76.00" routeLength="990.53" waitingTime="0.00" waitingCount="0" stopTime="0.00" timeLoss="7.70" rerouteNo="0" devices="tripinfo_NS_14" vType="car" speedFactor="1.03" vaporized=""/>
    <tripinfo id="WE_15" depart="15.00" departLane="1i_0" departPos="4.10" departSpeed="0.00" departDelay="0.00" arrival="109.00" arrivalLane="2o_0" arrivalPos="492.80" arrivalSpeed="8.74" duration="94.00" routeLength="995.90" waitingTime="0.00" waitingCount="0" stopTime="0.00" timeLoss="8.78" rerouteNo="0" devices="tripinfo_WE_15" vType="car" speedFactor="0.83" vaporized=""/>
    <tripinfo id="WE_29" depart="29.00" departLane="1i_0" departPos="4.10" departSpeed="0.00" departDelay="0.00" arrival="111.00" arrivalLane="2o_0" arrivalPos="492.80" arrivalSpeed="11.52" duration="82.00" routeLength="995.90" waitingTime="0.00" waitingCount="0" stopTime="0.00" timeLoss="16.41" rerouteNo="0" devices="tripinfo_WE_29" vType="car" speedFactor="1.09" vaporized=""/>
    <tripinfo id="NS_28" depart="28.00" departLane="2i_0" departPos="4.10" departSpeed="0.00" departDelay="0.00" arrival="112.00" arrivalLane="4o_0" arrivalPos="492.80" arrivalSpeed="9.59" duration="84.00" routeLength="990.53" waitingTime="0.00" waitingCount="0" stopTime="0.00" timeLoss="8.23" rerouteNo="0" devices="tripinfo_NS_28" vType="car" speedFactor="0.94" vaporized=""/>
    <tripinfo id="NS_32" depart="32.00" departLane="2i_0" departPos="4.10" departSpeed="0.00" departDelay="0.00" arrival="113.00" arrivalLane="4o_0" arrivalPos="492.80" arrivalSpeed="10.68" duration="81.00" routeLength="990.53" waitingTime="0.00" waitingCount="0" stopTime="0.00" timeLoss="12.35" rerouteNo="0" devices="tripinfo_NS_32" vType="car" speedFactor="1.03" vaporized=""/>
    <tripinfo id="WE_52" depart="52.00" departLane="1i_0" departPos="4.10" departSpeed="0.00" departDelay="0.00" arrival="124.00" arrivalLane="4o_0" arrivalPos="492.80" arrivalSpeed="12.09" duration="72.00" routeLength="995.70" waitingTime="0.00" waitingCount="0" stopTime="0.00" timeLoss="11.00" rerouteNo="0" devices="tripinfo_WE_52" vType="car" speedFactor="1.16" vaporized=""/>
    <tripinfo id="WE_44" depart="44.00" departLane="1i_0" departPos="4.10" departSpeed="0.00" departDelay="0.00" arrival="133.00" arrivalLane="3o_0" arrivalPos="492.80" arrivalSpeed="9.70" duration="89.00" routeLength="990.53" waitingTime="0.00" waitingCount="0" stopTime="0.00" timeLoss="8.14" rerouteNo="0" devices="tripinfo_WE_44" vType="car" speedFactor="0.88" vaporized=""/>
    <tripinfo id="WE_53" depart="55.00" departLane="1i_0" departPos="4.10" departSpeed="0.00" departDelay="2.00" arrival="134.00" arrivalLane="4o_0" arrivalPos="492.80" arrivalSpeed="10.75" duration="79.00" routeLength="995.70" waitingTime="0.00" waitingCount="0" stopTime="0.00" timeLoss="9.52" rerouteNo="0" devices="tripinfo_WE_53" vType="car" speedFactor="1.02" vaporized=""/>
    <tripinfo id="NS_42" depart="42.00" departLane="2i_0" departPos="4.10" departSpeed="0.00" departDelay="0.00" arrival="135.00" arrivalLane="3o_0" arrivalPos="492.80" arrivalSpeed="9.58" duration="93.00" routeLength="995.70" waitingTime="1.00" waitingCount="1" stopTime="0.00" timeLoss="16.06" rerouteNo="0" devices="tripinfo_NS_42" vType="car" speedFactor="0.93" vaporized=""/>
    <tripinfo id="WE_65" depart="65.00" departLane="1i_0" departPos="4.10" departSpeed="0.00" departDelay="0.00" arrival="147.00" arrivalLane="4o_0" arrivalPos="492.80" arrivalSpeed="10.75" duration="82.00" routeLength="995.70" waitingTime="0.00" waitingCount="0" stopTime="0.00" timeLoss="9.40" rerouteNo="0" devices="tripinfo_WE_65" vType="car" speedFactor="0.97" vaporized=""/>
    <tripinfo id="WE_83" depart="83.00" departLane="1i_0" departPos="4.10" departSpeed="0.00" departDelay="0.00" arrival="151.00" arrivalLane="2o_0" arrivalPos="492.80" arrivalSpeed="13.07" duration="68.00" routeLength="995.90" waitingTime="0.00" waitingCount="0" stopTime="0.00" timeLoss="7.19" rerouteNo="0" devices="tripinfo_WE_83" vType="car" speedFactor="1.18" vaporized=""/>
    <tripinfo id="NS_71" depart="71.00" departLane="2i_0" departPos="4.10" departSpeed="0.00" departDelay="0.00" arrival="161.00" arrivalLane="3o_0" arrivalPos="492.80" arrivalSpeed="8.83" duration="90.00" routeLength="995.70" waitingTime="0.00" waitingCount="0" stopTime="0.00" timeLoss="9.90" rerouteNo="0" devices="tripinfo_NS_71" vType="car" speedFactor="0.89" vaporized=""/>
    <tripinfo id="NS_82" depart="82.00" departLane="2i_0" departPos="4.10" departSpeed="0.00" departDelay="0.00" arrival="168.00" arrivalLane="3o_0" arrivalPos="492.80" arrivalSpeed="9.44" duration="86.00" routeLength="995.70" waitingTime="0.00" waitingCount="0" stopTime="0.00" timeLoss="9.34" rerouteNo="0" devices="tripinfo_NS_82" vType="car" speedFactor="0.93" vaporized=""/>
    <tripinfo id="WE_104" depart="104.00" departLane="1i_0" departPos="4.10" departSpeed="0.00" departDelay="0.00" arrival="183.00" arrivalLane="3o_0" arrivalPos="492.80" arrivalSpeed="10.76" duration="79.00" routeLength="990.53" waitingTime="0.00" waitingCount="0" stopTime="0.00" timeLoss="7.85" rerouteNo="0" devices="tripinfo_WE_104" vType="car" speedFactor="0.99" vaporized=""/>
    <tripinfo id="WE_107" depart="107.00" departLane="1i_0" departPos="4.10" departSpeed="0.00" departDelay="0.00" arrival="190.00" arrivalLane="4o_0" arrivalPos="492.80" arrivalSpeed="10.71" duration="83.00" routeLength="995.70" waitingTime="0.00" waitingCount="0" stopTime="0.00" timeLoss="10.18" rerouteNo="0" devices="tripinfo_WE_107" vType="car" speedFactor="0.97" vaporized=""/>
    <tripinfo id="WE_114" depart="114.00" departLane="1i_0" departPos="4.10" departSpeed="0.00" departDelay="0.00" arrival="192.00" arrivalLane="4o_0" arrivalPos="492.80" arrivalSpeed="12.78" duration="78.00" routeLength="995.70" waitingTime="0.00" waitingCount="0" stopTime="0.00" timeLoss="17.51" rerouteNo="0" devices="tripinfo_WE_114" vType="car" speedFactor="1.18" vaporized=""/>
    <tripinfo id="WE_121" depart="121.00" departLane="1i_0" departPos="4.10" departSpeed="0.00" departDelay="0.00" arrival="208.00" arrivalLane="3o_0" arrivalPos="492.80" arrivalSpeed="9.04" duration="87.00" routeLength="990.53" waitingTime="0.00" waitingCount="0" stopTime="0.00" timeLoss="8.66" rerouteNo="0" devices="tripinfo_WE_121" vType="car" speedFactor="0.90" vaporized=""/>
    <tripinfo id="WE_136" depart="136.00" departLane="1i_0" departPos="4.10" departSpeed="0.00" departDelay="0.00" arrival="214.00" arrivalLane="3o_0" arrivalPos="492.80" arrivalSpeed="10.60" duration="78.00" routeLength="990.53" waitingTime="0.00" waitingCount="0" stopTime="0.00" timeLoss="7.41" rerouteNo="0" devices="tripinfo_WE_136" vType="car" speedFactor="1.00" vaporized=""/>
    <tripinfo id="NS_122" depart="122.00" departLane="2i_0" departPos="4.10" departSpeed="0.00" departDelay="0.00" arrival="216.00" arrivalLane="3o_0" arrivalPos="492.80" arrivalSpeed="11.26" duration="94.00" routeLength="995.70" waitingTime="13.00" waitingCount="1" stopTime="0.00" timeLoss="25.14" rerouteNo="0" devices="tripinfo_NS_122" vType="car" speedFactor="1.03" vaporized=""/>
    <tripinfo id="NS_127" depart="127.00" departLane="2i_0" departPos="4.10" departSpeed="0.00" departDelay="0.00" arrival="219.00" arrivalLane="3o_0" arrivalPos="492.80" arrivalSpeed="10.31" duration="92.00" routeLength="995.70" waitingTime="7.00" waitingCount="1" stopTime="0.00" timeLoss="23.77" rerouteNo="0" devices="tripinfo_NS_127" vType="car" speedFactor="1.04" vaporized=""/>
    <tripinfo id="WE_142" depart="142.00" departLane="1i_0" departPos="4.10" departSpeed="0.00" departDelay="0.00" arrival="234.00" arrivalLane="4o_0" arrivalPos="492.80" arrivalSpeed="8.51" duration="92.00" routeLength="995.70" waitingTime="0.00" waitingCount="0" stopTime="0.00" timeLoss="11.23" rerouteNo="0" devices="tripinfo_WE_142" vType="car" speedFactor="0.88" vaporized=""/>
    <tripinfo id="NS_150" depart="151.00" departLane="2i_0" departPos="10.10" departSpeed="0.00" departDelay="1.00" arrival="236.00" arrivalLane="3o_0" arrivalPos="492.80" arrivalSpeed="11.63" duration="85.00" routeLength="989.70" waitingTime="0.00" waitingCount="0" stopTime="0.00" timeLoss="17.12" rerouteNo="0" devices="tripinfo_NS_150" vType="truck" speedFactor="1.05" vaporized=""/>
    <tripinfo id="NS_153" depart="155.00" departLane="2i_0" departPos="4.10" departSpeed="0.00" departDelay="2.00" arrival="241.00" arrivalLane="4o_0" arrivalPos="492.80" arrivalSpeed="10.11" duration="86.00" routeLength="990.53" waitingTime="0.00" waitingCount="0" stopTime="0.00" timeLoss="15.32" rerouteNo="0" devices="tripinfo_NS_153" vType="car" speedFactor="1.00" vaporized=""/>
    <tripinfo id="NS_162" depart="162.00" departLane="2i_0" departPos="4.10" departSpeed="0.00" departDelay="0.00" arrival="241.00" arrivalLane="1o_0" arrivalPos="492.80" arrivalSpeed="11.74" duration="79.00" routeLength="995.90" waitingTime="0.00" waitingCount="0" stopTime="0.00" timeLoss="16.25" rerouteNo="0" devices="tripinfo_NS_162" vType="car" speedFactor="1.14" vaporized=""/>
    <tripinfo id="NS_155" depart="158.00" departLane="2i_0" departPos="4.10" departSpeed="0.00" departDelay="3.00" arrival="245.00" arrivalLane="3o_0" arrivalPos="492.80" arrivalSpeed="10.42" duration="87.00" routeLength="995.70" waitingTime="0.00" waitingCount="0" stopTime="0.00" timeLoss="15.41" rerouteNo="0" devices="tripinfo_NS_155" vType="car" speedFactor="1.00" vaporized=""/>
    <tripinfo id="NS_171" depart="171.00" departLane="2i_0" departPos="4.10" departSpeed="0.00" departDelay="0.00" arrival="246.00" arrivalLane="1o_0" arrivalPos="492.80" arrivalSpeed="10.90" duration="75.00" routeLength="995.90" waitingTime="0.00" waitingCount="0" stopTime="0.00" timeLoss="9.64" rerouteNo="0" devices="tripinfo_NS_171" vType="car" speedFactor="1.08" vaporized=""/>
    <tripinfo id="NS_164" depart="165.00" departLane="2i_0" departPos="4.10" departSpeed="0.00" departDelay="1.00" arrival="247.00" arrivalLane="3o_0" arrivalPos="492.80" arrivalSpeed="10.97" duration="82.00" routeLength="995.70" waitingTime="0.00" waitingCount="0" stopTime="0.00" timeLoss="12.37" rerouteNo="0" devices="tripinfo_NS_164" vType="car" speedFactor="1.02" vaporized=""/>
    <tripinfo id="NS_181" depart="181.00" departLane="2i_0" departPos="4.10" departSpeed="0.00" departDelay="0.00" arrival="265.00" arrivalLane="4o_0" arrivalPos="492.80" arrivalSpeed="10.03" duration="84.00" routeLength="990.53" waitingTime="0.00" waitingCount="0" stopTime="0.00" timeLoss="8.71" rerouteNo="0" devices="tripinfo_NS_181" vType="car" speedFactor="0.94" vaporized=""/>
    <tripinfo id="NS_184" depart="184.00" departLane="2i_0" departPos="4.10" departSpeed="0.00" departDelay="0.00" arrival="272.00" arrivalLane="3o_0" arrivalPos="492.80" arrivalSpeed="9.56" duration="88.00" routeLength="995.70" waitingTime="0.00" waitingCount="0" stopTime="0.00" timeLoss="9.89" rerouteNo="0" devices="tripinfo_NS_184" vType="car" speedFactor="0.91" vaporized=""/>
    <tripinfo id="NS_199" depart="199.00" departLane="2i_0" departPos="4.10" departSpeed="0.00" departDelay="0.00" arrival="274.00" arrivalLane="4o_0" arrivalPos="492.80" arrivalSpeed="10.53" duration="75.00" routeLength="990.53" waitingTime="0.00" waitingCount="0" stopTime="0.00" timeLoss="8.28" rerouteNo="0" devices="tripinfo_NS_199" vType="car" speedFactor="1.06" vaporized=""/>
    <tripinfo id="NS_203" depart="203.00" departLane="2i_0" departPos="4.10" departSpeed="0.00" departDelay="0.00" arrival="286.00" arrivalLane="4o_0" arrivalPos="492.80" arrivalSpeed="9.63" duration="83.00" routeLength="990.53" waitingTime="0.00" waitingCount="0" stopTime="0.00" timeLoss="8.56" rerouteNo="0" devices="tripinfo_NS_203" vType="car" speedFactor="0.96" vaporized=""/>
    <tripinfo id="WE_146" depart="146.00" departLane="1i_0" departPos="10.10" departSpeed="0.00" departDelay="0.00" arrival="288.00" arrivalLane="4o_0" arrivalPos="492.80" arrivalSpeed="11.08" duration="142.00" routeLength="989.70" waitingTime="50.00" waitingCount="1" stopTime="0.00" timeLoss="75.63" rerouteNo="0" devices="tripinfo_WE_146" vType="truck" speedFactor="1.08" vaporized=""/>
    <tripinfo id="WE_167" depart="167.00" departLane="1i_0" departPos="4.10" departSpeed="0.00" departDelay="0.00" arrival="290.00" arrivalLane="3o_0" arrivalPos="492.80" arrivalSpeed="10.30" duration="123.00" routeLength="990.53" waitingTime="35.00" waitingCount="1" stopTime="0.00" timeLoss="50.30" rerouteNo="0" devices="tripinfo_WE_167" vType="car" speedFactor="0.97" vaporized=""/>
    <tripinfo id="WE_172" depart="172.00" departLane="1i_0" departPos="4.10" departSpeed="0.00" departDelay="0.00" arrival="290.00" arrivalLane="4o_0" arrivalPos="492.80" arrivalSpeed="12.20" duration="118.00" routeLength="995.70" waitingTime="33.00" waitingCount="1" stopTime="0.00" timeLoss="54.63" rerouteNo="0" devices="tripinfo_WE_172" vType="car" speedFactor="1.12" vaporized=""/>
    <tripinfo id="WE_178" depart="178.00" departLane="1i_0" departPos="4.10" departSpeed="0.00" departDelay="0.00" arrival="294.00" arrivalLane="2o_0" arrivalPos="492.80" arrivalSpeed="11.17" duration="116.00" routeLength="995.90" waitingTime="28.00" waitingCount="1" stopTime="0.00" timeLoss="45.53" rerouteNo="0" devices="tripinfo_WE_178" vType="car" speedFactor="1.02" vaporized=""/>
    <tripinfo id="WE_192" depart="192.00" departLane="1i_0" departPos="4.10" departSpeed="0.00" departDelay="0.00" arrival="295.00" arrivalLane="2o_0" arrivalPos="492.80" arrivalSpeed="10.62" duration="103.00" routeLength="995.90" waitingTime="14.00" waitingCount="1" stopTime="0.00" timeLoss="33.84" rerouteNo="0" devices="tripinfo_WE_192" vType="car" speedFactor="1.02" vaporized=""/>
    <tripinfo id="WE_210" depart="210.00" departLane="1i_0" departPos="4.10" departSpeed="0.00" departDelay="0.00" arrival="298.00" arrivalLane="4o_0" arrivalPos="492.80" arrivalSpeed="11.17" duration="88.00" routeLength="995.70" waitingTime="0.00" waitingCount="0" stopTime="0.00" timeLoss="19.22" rerouteNo="0" devices="tripinfo_WE_210" vType="car" speedFactor="1.03" vaporized=""/>
    <tripinfo id="NS_227" depart="227.00" departLane="2i_0" departPos="4.10" departSpeed="0.00" departDelay="0.00" arrival="298.00" arrivalLane="1o_0" arrivalPos="492.80" arrivalSpeed="11.51" duration="71.00" routeLength="995.90" waitingTime="0.00" waitingCount="0" stopTime="0.00" timeLoss="8.84" rerouteNo="0" devices="tripinfo_NS_227" vType="car" speedFactor="1.15" vaporized=""/>
    <tripinfo id="NS_216" depart="216.00" departLane="2i_0" departPos="4.10" departSpeed="0.00" departDelay="0.00" arrival="301.00" arrivalLane="3o_0" arrivalPos="492.80" arrivalSpeed="10.19" duration="85.00" routeLength="995.70" waitingTime="0.00" waitingCount="0" stopTime="0.00" timeLoss="12.66" rerouteNo="0" devices="tripinfo_NS_216" vType="car" speedFactor="0.98" vaporized=""/>
    <tripinfo id="WE_225" depart="225.00" departLane="1i_0" departPos="4.10" departSpeed="0.00" departDelay="0.00" arrival="307.00" arrivalLane="4o_0" arrivalPos="492.80" arrivalSpeed="11.30" duration="82.00" routeLength="995.70" waitingTime="0.00" waitingCount="0" stopTime="0.00" timeLoss="11.82" rerouteNo="0" devices="tripinfo_WE_225" vType="car" speedFactor="1.02" vaporized=""/>
    <tripinfo id="WE_226" depart="228.00" departLane="1i_0" departPos="4.10" departSpeed="0.00" departDelay="2.00" arrival="310.00" arrivalLane="3o_0" arrivalPos="492.80" arrivalSpeed="10.15" duration="82.00" routeLength="990.53" waitingTime="0.00" waitingCount="0" stopTime="0.00" timeLoss="8.62" rerouteNo="0" devices="tripinfo_WE_226" vType="car" speedFactor="0.97" vaporized=""/>
    <tripinfo id="WE_241" depart="241.00" departLane="1i_0" departPos="4.10" departSpeed="0.00" departDelay="0.00" arrival="319.00" arrivalLane="3o_0" arrivalPos="492.80" arrivalSpeed="10.45" duration="78.00" routeLength="990.53" waitingTime="0.00" waitingCount="0" stopTime="0.00" timeLoss="8.60" rerouteNo="0" devices="tripinfo_WE_241" vType="car" speedFactor="1.02" vaporized=""/>
    <tripinfo id="NS_246" depart="246.00" departLane="2i_0" departPos="10.10" departSpeed="0.00" departDelay="0.00" arrival="338.00" arrivalLane="3o_0" arrivalPos="492.80" arrivalSpeed="10.05" duration="92.00" routeLength="989.70" waitingTime="0.00" waitingCount="0" stopTime="0.00" timeLoss="17.10" rerouteNo="0" devices="tripinfo_NS_246" vType="truck" speedFactor="0.95" vaporized=""/>
    <tripinfo id="NS_249" depart="250.00" departLane="2i_0" departPos="4.10" departSpeed="0.00" departDelay="1.00" arrival="348.00" arrivalLane="1o_0" arrivalPos="492.80" arrivalSpeed="8.80" duration="98.00" routeLength="995.90" waitingTime="0.00" waitingCount="0" stopTime="0.00" timeLoss="13.15" rerouteNo="0" devices="tripinfo_NS_249" vType="car" speedFactor="0.83" vaporized=""/>
    <tripinfo id="NS_269" depart="269.00" departLane="2i_0" departPos="4.10" departSpeed="0.00" departDelay="0.00" arrival="350.00" arrivalLane="1o_0" arrivalPos="492.80" arrivalSpeed="12.39" duration="81.00" routeLength="995.90" waitingTime="0.00" waitingCount="0" stopTime="0.00" timeLoss="17.50" rerouteNo="0" devices="tripinfo_NS_269" vType="car" speedFactor="1.12" vaporized=""/>
    <tripinfo id="NS_280" depart="280.00" departLane="2i_0" departPos="4.10" departSpeed="0.00" departDelay="0.00" arrival="362.00" arrivalLane="4o_0" arrivalPos="492.80" arrivalSpeed="9.54" duration="82.00" routeLength="990.53" waitingTime="0.00" waitingCount="0" stopTime="0.00" timeLoss="8.20" rerouteNo="0" devices="tripinfo_NS_280" vType="car" speedFactor="0.95" vaporized=""/>
    <tripinfo id="NS_289" depart="289.00" departLane="2i_0" departPos="4.10" departSpeed="0.00" departDelay="0.00" arrival="369.00" arrivalLane="3o_0" arrivalPos="492.80" arrivalSpeed="10.95" duration="80.00" routeLength="995.70" waitingTime="0.00" waitingCount="0" stopTime="0.00" timeLoss="9.62" rerouteNo="0" devices="tripinfo_NS_289" vType="car" speedFactor="1.01" vaporized=""/>
    <tripinfo id="NS_293" depart="295.00" departLane="2i_0" departPos="4.10" departSpeed="0.00" departDelay="2.00" arrival="369.00" arrivalLane="1o_0" arrivalPos="492.80" arrivalSpeed="11.56" duration="74.00" routeLength="995.90" waitingTime="0.00" waitingCount="0" stopTime="0.00" timeLoss="7.33" rerouteNo="0" devices="tripinfo_NS_293" vType="car" speedFactor="1.06" vaporized=""/>
    <tripinfo id="NS_283" depart="283.00" departLane="2i_0" departPos="4.10" departSpeed="0.00" departDelay="0.00" arrival="371.00" arrivalLane="4o_0" arrivalPos="492.80" arrivalSpeed="9.30" duration="88.00" routeLength="990.53" waitingTime="0.00" waitingCount="0" stopTime="0.00" timeLoss="8.83" rerouteNo="0" devices="tripinfo_NS_283" vType="car" speedFactor="0.89" vaporized=""/>
    <tripinfo id="NS_295" depart="297.00" departLane="2i_0" departPos="4.10" departSpeed="0.00" departDelay="2.00" arrival="379.00" arrivalLane="4o_0" arrivalPos="492.80" arrivalSpeed="9.44" duration="82.00" routeLength="990.53" waitingTime="0.00" waitingCount="0" stopTime="0.00" timeLoss="8.73" rerouteNo="0" devices="tripinfo_NS_295" vType="car" speedFactor="0.96" vaporized=""/>
    <tripinfo id="NS_300" depart="300.00" departLane="2i_0" departPos="4.10" departSpeed="0.00" departDelay="0.00" arrival="381.00" arrivalLane="4o_0" arrivalPos="492.80" arrivalSpeed="11.32" duration="81.00" routeLength="990.53" waitingTime="0.00" waitingCount="0" stopTime="0.00" timeLoss="16.73" rerouteNo="0" devices="tripinfo_NS_300" vType="car" speedFactor="1.10" vaporized=""/>
    <tripinfo id="NS_309" depart="309.00" departLane="2i_0" departPos="4.10" departSpeed="0.00" departDelay="0.00" arrival="383.00" arrivalLane="4o_0" arrivalPos="492.80" arrivalSpeed="11.60" duration="74.00" routeLength="990.53" waitingTime="0.00" waitingCount="0" stopTime="0.00" timeLoss="9.30" rerouteNo="0" devices="tripinfo_NS_309" vType="car" speedFactor="1.10" vaporized=""/>
    <tripinfo id="SN_11" depart="11.00" departLane="3i_0" departPos="4.10" departSpeed="0.00" departDelay="0.00" arrival="387.00" arrivalLane="1o_0" arrivalPos="492.80" arrivalSpeed="11.93" duration="376.00" routeLength="981.50" waitingTime="301.00" waitingCount="1" stopTime="0.00" timeLoss="311.60" rerouteNo="0" devices="tripinfo_SN_11" vType="car" speedFactor="1.08" vaporized=""/>
    <tripinfo id="EW_11" depart="11.00" departLane="4i_0" departPos="10.10" departSpeed="0.00" departDelay="0.00" arrival="390.00" arrivalLane="2o_0" arrivalPos="492.80" arrivalSpeed="10.66" duration="379.00" routeLength="975.50" waitingTime="301.00" waitingCount="1" stopTime="0.00" timeLoss="315.60" rerouteNo="0" devices="tripinfo_EW_11" vType="truck" speedFactor="1.01" vaporized=""/>
    <tripinfo id="WE_258" depart="258.00" departLane="1i_0" departPos="10.10" departSpeed="0.00" departDelay="0.00" arrival="390.00" arrivalLane="4o_0" arrivalPos="492.80" arrivalSpeed="11.25" duration="132.00" routeLength="989.70" waitingTime="41.00" waitingCount="1" stopTime="0.00" timeLoss="63.98" rerouteNo="0" devices="tripinfo_WE_258" vType="truck" speedFactor="1.05" vaporized=""/>
    <tripinfo id="WE_270" depart="270.00" departLane="1i_0" departPos="4.10" departSpeed="0.00" departDelay="0.00" arrival="392.00" arrivalLane="2o_0" arrivalPos="492.80" arrivalSpeed="11.86" duration="122.00" routeLength="995.90" waitingTime="37.00" waitingCount="1" stopTime="0.00" timeLoss="57.36" rerouteNo="0" devices="tripinfo_WE_270" vType="car" speedFactor="1.10" vaporized=""/>
    <tripinfo id="WE_287" depart="287.00" departLane="1i_0" departPos="4.10" departSpeed="0.00" departDelay="0.00" arrival="395.00" arrivalLane="4o_0" arrivalPos="492.80" arrivalSpeed="10.97" duration="108.00" routeLength="995.70" waitingTime="25.00" waitingCount="1" stopTime="0.00" timeLoss="41.71" rerouteNo="0" devices="tripinfo_WE_287" vType="car" speedFactor="1.07" vaporized=""/>
    <tripinfo id="WE_267" depart="267.00" departLane="1i_0" departPos="4.10" departSpeed="0.00" departDelay="0.00" arrival="398.00" arrivalLane="3o_0" arrivalPos="492.80" arrivalSpeed="9.72" duration="131.00" routeLength="990.53" waitingTime="38.00" waitingCount="1" stopTime="0.00" timeLoss="53.07" rerouteNo="0" devices="tripinfo_WE_267" vType="car" speedFactor="0.91" vaporized=""/>
    <tripinfo id="WE_296" depart="298.00" departLane="1i_0" departPos="4.10" departSpeed="0.00" departDelay="2.00" arrival="403.00" arrivalLane="2o_0" arrivalPos="492.80" arrivalSpeed="10.14" duration="105.00" routeLength="995.90" waitingTime="12.00" waitingCount="1" stopTime="0.00" timeLoss="28.83" rerouteNo="0" devices="tripinfo_WE_296" vType="car" speedFactor="0.93" vaporized=""/>
    <tripinfo id="WE_304" depart="304.00" departLane="1i_0" departPos="4.10" departSpeed="0.00" departDelay="0.00" arrival="405.00" arrivalLane="2o_0" arrivalPos="492.80" arrivalSpeed="10.72" duration="101.00" routeLength="995.90" waitingTime="8.00" waitingCount="1" stopTime="0.00" timeLoss="30.58" rerouteNo="0" devices="tripinfo_WE_304" vType="car" speedFactor="1.01" vaporized=""/>
    <tripinfo id="WE_314" depart="314.00" departLane="1i_0" departPos="4.10" departSpeed="0.00" departDelay="0.00" arrival="407.00" arrivalLane="2o_0" arrivalPos="492.80" arrivalSpeed="11.11" duration="93.00" routeLength="995.90" waitingTime="0.00" waitingCount="0" stopTime="0.00" timeLoss="21.97" rerouteNo="0" devices="tripinfo_WE_314" vType="car" speedFactor="1.00" vaporized=""/>
    <tripinfo id="WE_335" depart="335.00" departLane="1i_0" departPos="4.10" departSpeed="0.00" departDelay="0.00" arrival="407.00" arrivalLane="3o_0" arrivalPos="492.80" arrivalSpeed="11.76" duration="72.00" routeLength="990.53" waitingTime="0.00" waitingCount="0" stopTime="0.00" timeLoss="7.78" rerouteNo="0" devices="tripinfo_WE_335" vType="car" speedFactor="1.10" vaporized=""/>
    <tripinfo id="WE_317" depart="317.00" departLane="1i_0" departPos="4.10" departSpeed="0.00" departDelay="0.00" arrival="409.00" arrivalLane="2o_0" arrivalPos="492.80" arrivalSpeed="10.01" duration="92.00" routeLength="995.90" waitingTime="0.00" waitingCount="0" stopTime="0.00" timeLoss="19.97" rerouteNo="0" devices="tripinfo_WE_317" vType="car" speedFactor="0.99" vaporized=""/>
    <tripinfo id="WE_348" depart="348.00" departLane="1i_0" departPos="4.10" departSpeed="0.00" departDelay="0.00" arrival="417.00" arrivalLane="3o_0" arrivalPos="492.80" arrivalSpeed="11.52" duration="69.00" routeLength="990.53" waitingTime="0.00" waitingCount="0" stopTime="0.00" timeLoss="7.84" rerouteNo="0" devices="tripinfo_WE_348" vType="car" speedFactor="1.15" vaporized=""/>
    <tripinfo id="NS_346" depart="346.00" departLane="2i_0" departPos="4.10" departSpeed="0.00" departDelay="0.00" arrival="428.00" arrivalLane="1o_0" arrivalPos="492.80" arrivalSpeed="11.74" duration="82.00" routeLength="995.90" waitingTime="1.00" waitingCount="1" stopTime="0.00" timeLoss="14.46" rerouteNo="0" devices="tripinfo_NS_346" vType="car" speedFactor="1.06" vaporized=""/>
    <tripinfo id="NS_329" depart="329.00" departLane="2i_0" departPos="4.10" departSpeed="0.00" departDelay="0.00" arrival="429.00" arrivalLane="3o_0" arrivalPos="492.80" arrivalSpeed="9.60" duration="100.00" routeLength="995.70" waitingTime="13.00" waitingCount="1" stopTime="0.00" timeLoss="24.94" rerouteNo="0" devices="tripinfo_NS_329" vType="car" speedFactor="0.94" vaporized=""/>
    <tripinfo id="NS_336" depart="336.00" departLane="2i_0" departPos="4.10" departSpeed="0.00" departDelay="0.00" arrival="431.00" arrivalLane="3o_0" arrivalPos="492.80" arrivalSpeed="10.39" duration="95.00" routeLength="995.70" waitingTime="9.00" waitingCount="1" stopTime="0.00" timeLoss="26.19" rerouteNo="0" devices="tripinfo_NS_336" vType="car" speedFactor="1.03" vaporized=""/>
    <tripinfo id="WE_361" depart="361.00" departLane="1i_0" departPos="4.10" departSpeed="0.00" departDelay="0.00" arrival="436.00" arrivalLane="2o_0" arrivalPos="492.80" arrivalSpeed="11.59" duration="75.00" routeLength="995.90" waitingTime="0.00" waitingCount="0" stopTime="0.00" timeLoss="8.60" rerouteNo="0" devices="tripinfo_WE_361" vType="car" speedFactor="1.07" vaporized=""/>
    <tripinfo id="NS_349" depart="349.00" departLane="2i_0" departPos="4.10" departSpeed="0.00" departDelay="0.00" arrival="445.00" arrivalLane="3o_0" arrivalPos="492.80" arrivalSpeed="8.24" duration="96.00" routeLength="995.70" waitingTime="0.00" waitingCount="0" stopTime="0.00" timeLoss="9.71" rerouteNo="0" devices="tripinfo_NS_349" vType="car" speedFactor="0.82" vaporized=""/>
    <tripinfo id="WE_362" depart="364.00" departLane="1i_0" departPos="4.10" departSpeed="0.00" departDelay="2.00" arrival="446.00" arrivalLane="2o_0" arrivalPos="492.80" arrivalSpeed="10.42" duration="82.00" routeLength="995.90" waitingTime="0.00" waitingCount="0" stopTime="0.00" timeLoss="8.14" rerouteNo="0" devices="tripinfo_WE_362" vType="car" speedFactor="0.96" vaporized=""/>
    <tripinfo id="NS_368" depart="368.00" departLane="2i_0" departPos="4.10" departSpeed="0.00" departDelay="0.00" arrival="449.00" arrivalLane="3o_0" arrivalPos="492.80" arrivalSpeed="10.19" duration="81.00" routeLength="995.70" waitingTime="0.00" waitingCount="0" stopTime="0.00" timeLoss="10.74" rerouteNo="0" devices="tripinfo_NS_368" vType="car" speedFactor="1.01" vaporized=""/>
    <tripinfo id="NS_376" depart="376.00" departLane="2i_0" departPos="4.10" departSpeed="0.00" departDelay="0.00" arrival="451.00" arrivalLane="3o_0" arrivalPos="492.80" arrivalSpeed="11.18" duration="75.00" routeLength="995.70" waitingTime="0.00" waitingCount="0" stopTime="0.00" timeLoss="11.06" rerouteNo="0" devices="tripinfo_NS_376" vType="car" speedFactor="1.12" vaporized=""/>
    <tripinfo id="WE_365" depart="367.00" departLane="1i_0" departPos="4.10" departSpeed="0.00" departDelay="2.00" arrival="455.00" arrivalLane="4o_0" arrivalPos="492.80" arrivalSpeed="10.41" duration="88.00" routeLength="995.70" waitingTime="6.00" waitingCount="1" stopTime="0.00" timeLoss="19.16" rerouteNo="0" devices="tripinfo_WE_365" vType="car" speedFactor="1.04" vaporized=""/>
    <tripinfo id="WE_388" depart="390.00" departLane="1i_0" departPos="4.10" departSpeed="0.00" departDelay="2.00" arrival="465.00" arrivalLane="4o_0" arrivalPos="492.80" arrivalSpeed="12.05" duration="75.00" routeLength="995.70" waitingTime="0.00" waitingCount="0" stopTime="0.00" timeLoss="11.37" rerouteNo="0" devices="tripinfo_WE_388" vType="car" speedFactor="1.11" vaporized=""/>