<?xml version="1.0" encoding="UTF-8"?>

<!-- generated on 2024-05-04 16:27:47 by Eclipse SUMO sumo Version 1.19.0
<configuration xmlns:xsi="http://www.w3.org/2001/XMLSchema-instance" xsi:noNamespaceSchemaLocation="http://sumo.dlr.de/xsd/sumoConfiguration.xsd">

    <input>
        <net-file value="working/./test5.net.xml"/>
        <route-files value="working/./gen_route.rou.xml"/>
    </input>

    <output>
        <tripinfo-output value="tripinfo_epi1.xml"/>
    </output>

    <report>
        <no-warnings value="true"/>
    </report>

    <traci_server>
        <remote-port value="50399"/>
    </traci_server>

</configuration>
-->

<tripinfos xmlns:xsi="http://www.w3.org/2001/XMLSchema-instance" xsi:noNamespaceSchemaLocation="http://sumo.dlr.de/xsd/tripinfo_file.xsd">
    <tripinfo id="WE_6" depart="6.00" departLane="1i_0" departPos="4.10" departSpeed="0.00" departDelay="0.00" arrival="89.00" arrivalLane="3o_0" arrivalPos="492.80" arrivalSpeed="9.54" duration="83.00" routeLength="990.53" waitingTime="0.00" waitingCount="0" stopTime="0.00" timeLoss="7.43" rerouteNo="0" devices="tripinfo_WE_6" vType="car" speedFactor="0.94" vaporized=""/>
    <tripinfo id="NS_29" depart="29.00" departLane="2i_0" departPos="4.10" departSpeed="0.00" departDelay="0.00" arrival="108.00" arrivalLane="3o_0" arrivalPos="492.80" arrivalSpeed="10.85" duration="79.00" routeLength="995.70" waitingTime="0.00" waitingCount="0" stopTime="0.00" timeLoss="13.98" rerouteNo="0" devices="tripinfo_NS_29" vType="car" speedFactor="1.09" vaporized=""/>
    <tripinfo id="NS_23" depart="23.00" departLane="2i_0" departPos="10.10" departSpeed="0.00" departDelay="0.00" arrival="111.00" arrivalLane="4o_0" arrivalPos="492.80" arrivalSpeed="10.05" duration="88.00" routeLength="984.53" waitingTime="0.00" waitingCount="0" stopTime="0.00" timeLoss="11.17" rerouteNo="0" devices="tripinfo_NS_23" vType="truck" speedFactor="0.92" vaporized=""/>
    <tripinfo id="NS_33" depart="33.00" departLane="2i_0" departPos="4.10" departSpeed="0.00" departDelay="0.00" arrival="112.00" arrivalLane="1o_0" arrivalPos="492.80" arrivalSpeed="11.04" duration="79.00" routeLength="995.90" waitingTime="0.00" waitingCount="0" stopTime="0.00" timeLoss="11.17" rerouteNo="0" devices="tripinfo_NS_33" vType="car" speedFactor="1.05" vaporized=""/>
    <tripinfo id="NS_38" depart="38.00" departLane="2i_0" departPos="4.10" departSpeed="0.00" departDelay="0.00" arrival="117.00" arrivalLane="4o_0" arrivalPos="492.80" arrivalSpeed="11.00" duration="79.00" routeLength="990.53" waitingTime="0.00" waitingCount="0" stopTime="0.00" timeLoss="7.62" rerouteNo="0" devices="tripinfo_NS_38" vType="car" speedFactor="0.99" vaporized=""/>
    <tripinfo id="NS_39" depart="41.00" departLane="2i_0" departPos="4.10" departSpeed="0.00" departDelay="2.00" arrival="126.00" arrivalLane="1o_0" arrivalPos="492.80" arrivalSpeed="9.90" duration="85.00" routeLength="995.90" waitingTime="0.00" waitingCount="0" stopTime="0.00" timeLoss="8.03" rerouteNo="0" devices="tripinfo_NS_39" vType="car" speedFactor="0.93" vaporized=""/>
    <tripinfo id="NS_46" depart="46.00" departLane="2i_0" departPos="4.10" departSpeed="0.00" departDelay="0.00" arrival="131.00" arrivalLane="1o_0" arrivalPos="492.80" arrivalSpeed="10.00" duration="85.00" routeLength="995.90" waitingTime="0.00" waitingCount="0" stopTime="0.00" timeLoss="9.18" rerouteNo="0" devices="tripinfo_NS_46" vType="car" speedFactor="0.94" vaporized=""/>
    <tripinfo id="NS_43" depart="43.00" departLane="2i_0" departPos="4.10" departSpeed="0.00" departDelay="0.00" arrival="133.00" arrivalLane="4o_0" arrivalPos="492.80" arrivalSpeed="9.20" duration="90.00" routeLength="990.53" waitingTime="0.00" waitingCount="0" stopTime="0.00" timeLoss="9.03" rerouteNo="0" devices="tripinfo_NS_43" vType="car" speedFactor="0.88" vaporized=""/>
    <tripinfo id="NS_56" depart="56.00" departLane="2i_0" departPos="4.10" departSpeed="0.00" departDelay="0.00" arrival="134.00" arrivalLane="4o_0" arrivalPos="492.80" arrivalSpeed="10.47" duration="78.00" routeLength="990.53" waitingTime="0.00" waitingCount="0" stopTime="0.00" timeLoss="8.53" rerouteNo="0" devices="tripinfo_NS_56" vType="car" speedFactor="1.01" vaporized=""/>
    <tripinfo id="NS_57" depart="59.00" departLane="2i_0" departPos="4.10" departSpeed="0.00" departDelay="2.00" arrival="140.00" arrivalLane="4o_0" arrivalPos="492.80" arrivalSpeed="10.08" duration="81.00" routeLength="990.53" waitingTime="0.00" waitingCount="0" stopTime="0.00" timeLoss="7.86" rerouteNo="0" devices="tripinfo_NS_57" vType="car" speedFactor="0.97" vaporized=""/>
    <tripinfo id="WE_52" depart="52.00" departLane="1i_0" departPos="10.10" departSpeed="0.00" departDelay="0.00" arrival="144.00" arrivalLane="2o_0" arrivalPos="492.80" arrivalSpeed="10.78" duration="92.00" routeLength="989.90" waitingTime="0.00" waitingCount="0" stopTime="0.00" timeLoss="21.94" rerouteNo="0" devices="tripinfo_WE_52" vType="truck" speedFactor="1.01" vaporized=""/>
    <tripinfo id="WE_27" depart="27.00" departLane="1i_0" departPos="4.10" departSpeed="0.00" departDelay="0.00" arrival="145.00" arrivalLane="4o_0" arrivalPos="492.80" arrivalSpeed="9.66" duration="118.00" routeLength="995.70" waitingTime="28.00" waitingCount="1" stopTime="0.00" timeLoss="42.11" rerouteNo="0" devices="tripinfo_WE_27" vType="car" speedFactor="0.94" vaporized=""/>
    <tripinfo id="WE_63" depart="63.00" departLane="1i_0" departPos="4.10" departSpeed="0.00" departDelay="0.00" arrival="152.00" arrivalLane="3o_0" arrivalPos="492.80" arrivalSpeed="9.29" duration="89.00" routeLength="990.53" waitingTime="0.00" waitingCount="0" stopTime="0.00" timeLoss="10.00" rerouteNo="0" devices="tripinfo_WE_63" vType="car" speedFactor="0.89" vaporized=""/>
    <tripinfo id="WE_69" depart="69.00" departLane="1i_0" departPos="4.10" departSpeed="0.00" departDelay="0.00" arrival="164.00" arrivalLane="2o_0" arrivalPos="492.80" arrivalSpeed="9.08" duration="95.00" routeLength="995.90" waitingTime="0.00" waitingCount="0" stopTime="0.00" timeLoss="8.73" rerouteNo="0" devices="tripinfo_WE_69" vType="car" speedFactor="0.83" vaporized=""/>
    <tripinfo id="NS_83" depart="83.00" departLane="2i_0" departPos="4.10" departSpeed="0.00" departDelay="0.00" arrival="165.00" arrivalLane="1o_0" arrivalPos="492.80" arrivalSpeed="9.83" duration="82.00" routeLength="995.90" waitingTime="0.00" waitingCount="0" stopTime="0.00" timeLoss="7.53" rerouteNo="0" devices="tripinfo_NS_83" vType="car" speedFactor="0.95" vaporized=""/>
    <tripinfo id="WE_96" depart="96.00" departLane="1i_0" departPos="4.10" departSpeed="0.00" departDelay="0.00" arrival="169.00" arrivalLane="4o_0" arrivalPos="492.80" arrivalSpeed="12.44" duration="73.00" routeLength="995.70" waitingTime="0.00" waitingCount="0" stopTime="0.00" timeLoss="11.56" rerouteNo="0" devices="tripinfo_WE_96" vType="car" speedFactor="1.15" vaporized=""/>
    <tripinfo id="WE_83" depart="83.00" departLane="1i_0" departPos="4.10" departSpeed="0.00" departDelay="0.00" arrival="173.00" arrivalLane="3o_0" arrivalPos="492.80" arrivalSpeed="9.18" duration="90.00" routeLength="990.53" waitingTime="0.00" waitingCount="0" stopTime="0.00" timeLoss="8.80" rerouteNo="0" devices="tripinfo_WE_83" vType="car" speedFactor="0.87" vaporized=""/>
    <tripinfo id="NS_109" depart="110.00" departLane="2i_0" departPos="4.10" departSpeed="0.00" departDelay="1.00" arrival="181.00" arrivalLane="1o_0" arrivalPos="492.80" arrivalSpeed="12.56" duration="71.00" routeLength="995.90" waitingTime="0.00" waitingCount="0" stopTime="0.00" timeLoss="10.22" rerouteNo="0" devices="tripinfo_NS_109" vType="car" speedFactor="1.18" vaporized=""/>
    <tripinfo id="WE_99" depart="100.00" departLane="1i_0" departPos="10.10" departSpeed="0.00" departDelay="1.00" arrival="183.00" arrivalLane="3o_0" arrivalPos="492.80" arrivalSpeed="10.78" duration="83.00" routeLength="984.53" waitingTime="0.00" waitingCount="0" stopTime="0.00" timeLoss="12.96" rerouteNo="0" devices="tripinfo_WE_99" vType="truck" speedFactor="1.00" vaporized=""/>
    <tripinfo id="NS_107" depart="107.00" departLane="2i_0" departPos="4.10" departSpeed="0.00" departDelay="0.00" arrival="186.00" arrivalLane="3o_0" arrivalPos="492.80" arrivalSpeed="10.61" duration="79.00" routeLength="995.70" waitingTime="0.00" waitingCount="0" stopTime="0.00" timeLoss="9.26" rerouteNo="0" devices="tripinfo_NS_107" vType="car" speedFactor="1.02" vaporized=""/>
    <tripinfo id="WE_107" depart="107.00" departLane="1i_0" departPos="4.10" departSpeed="0.00" departDelay="0.00" arrival="192.00" arrivalLane="4o_0" arrivalPos="492.80" arrivalSpeed="10.32" duration="85.00" routeLength="995.70" waitingTime="0.00" waitingCount="0" stopTime="0.00" timeLoss="13.66" rerouteNo="0" devices="tripinfo_WE_107" vType="car" speedFactor="0.99" vaporized=""/>
    <tripinfo id="WE_112" depart="112.00" departLane="1i_0" departPos="4.10" departSpeed="0.00" departDelay="0.00" arrival="194.00" arrivalLane="4o_0" arrivalPos="492.80" arrivalSpeed="11.76" duration="82.00" routeLength="995.70" waitingTime="0.00" waitingCount="0" stopTime="0.00" timeLoss="17.23" rerouteNo="0" devices="tripinfo_WE_112" vType="car" speedFactor="1.10" vaporized=""/>
    <tripinfo id="EW_8" depart="8.00" departLane="4i_0" departPos="4.10" departSpeed="0.00" departDelay="0.00" arrival="202.00" arrivalLane="1o_0" arrivalPos="492.80" arrivalSpeed="10.36" duration="194.00" routeLength="990.53" waitingTime="111.00" waitingCount="1" stopTime="0.00" timeLoss="124.47" rerouteNo="0" devices="tripinfo_EW_8" vType="car" speedFactor="1.01" vaporized=""/>
    <tripinfo id="WE_116" depart="116.00" departLane="1i_0" departPos="4.10" departSpeed="0.00" departDelay="0.00" arrival="202.00" arrivalLane="2o_0" arrivalPos="492.80" arrivalSpeed="9.68" duration="86.00" routeLength="995.90" waitingTime="0.00" waitingCount="0" stopTime="0.00" timeLoss="7.29" rerouteNo="0" devices="tripinfo_WE_116" vType="car" speedFactor="0.90" vaporized=""/>
    <tripinfo id="SN_2" depart="2.00" departLane="3i_0" departPos="4.10" departSpeed="0.00" departDelay="0.00" arrival="204.00" arrivalLane="2o_0" arrivalPos="492.80" arrivalSpeed="10.93" duration="202.00" routeLength="990.53" waitingTime="119.00" waitingCount="1" stopTime="0.00" timeLoss="135.18" rerouteNo="0" devices="tripinfo_SN_2" vType="car" speedFactor="1.06" vaporized=""/>
    <tripinfo id="WE_124" depart="124.00" departLane="1i_0" departPos="4.10" departSpeed="0.00" departDelay="0.00" arrival="206.00" arrivalLane="2o_0" arrivalPos="492.80" arrivalSpeed="11.47" duration="82.00" routeLength="995.90" waitingTime="0.00" waitingCount="0" stopTime="0.00" timeLoss="13.33" rerouteNo="0" devices="tripinfo_WE_124" vType="car" speedFactor="1.04" vaporized=""/>
    <tripinfo id="EW_11" depart="11.00" departLane="4i_0" departPos="4.10" departSpeed="0.00" departDelay="0.00" arrival="212.00" arrivalLane="1o_0" arrivalPos="492.80" arrivalSpeed="12.00" duration="201.00" routeLength="990.53" waitingTime="116.00" waitingCount="2" stopTime="0.00" timeLoss="135.60" rerouteNo="0" devices="tripinfo_EW_11" vType="car" speedFactor="1.08" vaporized=""/>
    <tripinfo id="WE_130" depart="131.00" departLane="1i_0" departPos="4.10" departSpeed="0.00" departDelay="1.00" arrival="217.00" arrivalLane="3o_0" arrivalPos="492.80" arrivalSpeed="9.81" duration="86.00" routeLength="990.53" waitingTime="0.00" waitingCount="0" stopTime="0.00" timeLoss="7.80" rerouteNo="0" devices="tripinfo_WE_130" vType="car" speedFactor="0.90" vaporized=""/>
    <tripinfo id="SN_24" depart="24.00" departLane="3i_0" departPos="4.10" departSpeed="0.00" departDelay="0.00" arrival="222.00" arrivalLane="4o_0" arrivalPos="492.80" arrivalSpeed="9.35" duration="198.00" routeLength="995.90" waitingTime="100.00" waitingCount="2" stopTime="0.00" timeLoss="118.01" rerouteNo="0" devices="tripinfo_SN_24" vType="car" speedFactor="0.89" vaporized=""/>
    <tripinfo id="WE_141" depart="141.00" departLane="1i_0" departPos="4.10" departSpeed="0.00" departDelay="0.00" arrival="224.00" arrivalLane="4o_0" arrivalPos="492.80" arrivalSpeed="10.90" duration="83.00" routeLength="995.70" waitingTime="0.00" waitingCount="0" stopTime="0.00" timeLoss="11.87" rerouteNo="0" devices="tripinfo_WE_141" vType="car" speedFactor="1.00" vaporized=""/>
    <tripinfo id="NS_133" depart="133.00" departLane="2i_0" departPos="4.10" departSpeed="0.00" departDelay="0.00" arrival="227.00" arrivalLane="3o_0" arrivalPos="492.80" arrivalSpeed="8.94" duration="94.00" routeLength="995.70" waitingTime="0.00" waitingCount="0" stopTime="0.00" timeLoss="10.93" rerouteNo="0" devices="tripinfo_NS_133" vType="car" speedFactor="0.85" vaporized=""/>
    <tripinfo id="NS_150" depart="150.00" departLane="2i_0" departPos="4.10" departSpeed="0.00" departDelay="0.00" arrival="227.00" arrivalLane="4o_0" arrivalPos="492.80" arrivalSpeed="11.17" duration="77.00" routeLength="990.53" waitingTime="0.00" waitingCount="0" stopTime="0.00" timeLoss="8.23" rerouteNo="0" devices="tripinfo_NS_150" vType="car" speedFactor="1.02" vaporized=""/>
    <tripinfo id="EW_21" depart="21.00" departLane="4i_0" departPos="4.10" departSpeed="0.00" departDelay="0.00" arrival="233.00" arrivalLane="1o_0" arrivalPos="492.80" arrivalSpeed="10.87" duration="212.00" routeLength="990.53" waitingTime="121.00" waitingCount="3" stopTime="0.00" timeLoss="142.98" rerouteNo="0" devices="tripinfo_EW_21" vType="car" speedFactor="1.03" vaporized=""/>
    <tripinfo id="EW_24" depart="24.00" departLane="4i_0" departPos="4.10" departSpeed="0.00" departDelay="0.00" arrival="234.00" arrivalLane="2o_0" arrivalPos="492.80" arrivalSpeed="11.41" duration="210.00" routeLength="995.70" waitingTime="119.00" waitingCount="3" stopTime="0.00" timeLoss="142.13" rerouteNo="0" devices="tripinfo_EW_24" vType="car" speedFactor="1.05" vaporized=""/>
    <tripinfo id="EW_37" depart="37.00" departLane="4i_0" departPos="4.10" departSpeed="0.00" departDelay="0.00" arrival="234.00" arrivalLane="3o_0" arrivalPos="492.80" arrivalSpeed="11.42" duration="197.00" routeLength="995.90" waitingTime="108.00" waitingCount="3" stopTime="0.00" timeLoss="134.06" rerouteNo="0" devices="tripinfo_EW_37" vType="car" speedFactor="1.12" vaporized=""/>
    <tripinfo id="EW_30" depart="30.00" departLane="4i_0" departPos="4.10" departSpeed="0.00" departDelay="0.00" arrival="236.00" arrivalLane="1o_0" arrivalPos="492.80" arrivalSpeed="10.30" duration="206.00" routeLength="990.53" waitingTime="112.00" waitingCount="3" stopTime="0.00" timeLoss="137.10" rerouteNo="0" devices="tripinfo_EW_30" vType="car" speedFactor="1.03" vaporized=""/>
    <tripinfo id="EW_49" depart="49.00" departLane="4i_0" departPos="4.10" departSpeed="0.00" departDelay="0.00" arrival="238.00" arrivalLane="1o_0" arrivalPos="492.80" arrivalSpeed="11.81" duration="189.00" routeLength="990.53" waitingTime="95.00" waitingCount="3" stopTime="0.00" timeLoss="127.68" rerouteNo="0" devices="tripinfo_EW_49" vType="car" speedFactor="1.16" vaporized=""/>
    <tripinfo id="EW_136" depart="136.00" departLane="4i_0" departPos="4.10" departSpeed="0.00" departDelay="0.00" arrival="249.00" arrivalLane="3o_0" arrivalPos="492.80" arrivalSpeed="12.64" duration="113.00" routeLength="995.90" waitingTime="11.00" waitingCount="2" stopTime="0.00" timeLoss="52.60" rerouteNo="0" devices="tripinfo_EW_136" vType="car" speedFactor="1.17" vaporized=""/>
    <tripinfo id="EW_83" depart="83.00" departLane="4i_0" departPos="4.10" departSpeed="0.00" departDelay="0.00" arrival="250.00" arrivalLane="2o_0" arrivalPos="492.80" arrivalSpeed="9.21" duration="167.00" routeLength="995.70" waitingTime="59.00" waitingCount="3" stopTime="0.00" timeLoss="89.54" rerouteNo="0" devices="tripinfo_EW_83" vType="car" speedFactor="0.92" vaporized=""/>
    <tripinfo id="EW_90" depart="90.00" departLane="4i_0" departPos="4.10" departSpeed="0.00" departDelay="0.00" arrival="250.00" arrivalLane="1o_0" arrivalPos="492.80" arrivalSpeed="9.76" duration="160.00" routeLength="990.53" waitingTime="52.00" waitingCount="3" stopTime="0.00" timeLoss="83.69" rerouteNo="0" devices="tripinfo_EW_90" vType="car" speedFactor="0.93" vaporized=""/>
    <tripinfo id="EW_116" depart="117.00" departLane="4i_0" departPos="4.10" departSpeed="0.00" departDelay="1.00" arrival="252.00" arrivalLane="2o_0" arrivalPos="492.80" arrivalSpeed="10.56" duration="135.00" routeLength="995.70" waitingTime="28.00" waitingCount="3" stopTime="0.00" timeLoss="65.77" rerouteNo="0" devices="tripinfo_EW_116" vType="car" speedFactor="1.03" vaporized=""/>
    <tripinfo id="EW_119" depart="120.00" departLane="4i_0" departPos="4.10" departSpeed="0.00" departDelay="1.00" arrival="254.00" arrivalLane="2o_0" arrivalPos="492.80" arrivalSpeed="11.68" duration="134.00" routeLength="995.70" waitingTime="25.00" waitingCount="3" stopTime="0.00" timeLoss="68.49" rerouteNo="0" devices="tripinfo_EW_119" vType="car" speedFactor="1.09" vaporized=""/>
    <tripinfo id="EW_126" depart="126.00" departLane="4i_0" departPos="4.10" departSpeed="0.00" departDelay="0.00" arrival="255.00" arrivalLane="2o_0" arrivalPos="492.80" arrivalSpeed="11.10" duration="129.00" routeLength="995.70" waitingTime="22.00" waitingCount="3" stopTime="0.00" timeLoss="63.96" rerouteNo="0" devices="tripinfo_EW_126" vType="car" speedFactor="1.09" vaporized=""/>
    <tripinfo id="EW_148" depart="154.00" departLane="4i_0" departPos="10.10" departSpeed="0.00" departDelay="6.00" arrival="263.00" arrivalLane="1o_0" arrivalPos="492.80" arrivalSpeed="11.86" duration="109.00" routeLength="984.53" waitingTime="7.00" waitingCount="1" stopTime="0.00" timeLoss="41.83" rerouteNo="0" devices="tripinfo_EW_148" vType="truck" speedFactor="1.07" vaporized=""/>
    <tripinfo id="EW_133" depart="134.00" departLane="4i_0" departPos="4.10" departSpeed="0.00" departDelay="1.00" arrival="265.00" arrivalLane="2o_0" arrivalPos="492.80" arrivalSpeed="8.66" duration="131.00" routeLength="995.70" waitingTime="11.00" waitingCount="2" stopTime="0.00" timeLoss="47.23" rerouteNo="0" devices="tripinfo_EW_133" vType="car" speedFactor="0.85" vaporized=""/>
    <tripinfo id="EW_140" depart="140.00" departLane="4i_0" departPos="4.10" departSpeed="0.00" departDelay="0.00" arrival="266.00" arrivalLane="2o_0" arrivalPos="492.80" arrivalSpeed="9.90" duration="126.00" routeLength="995.70" waitingTime="9.00" waitingCount="2" stopTime="0.00" timeLoss="61.48" rerouteNo="0" devices="tripinfo_EW_140" vType="car" speedFactor="1.10" vaporized=""/>
    <tripinfo id="EW_146" depart="146.00" departLane="4i_0" departPos="10.10" departSpeed="0.00" departDelay="0.00" arrival="269.00" arrivalLane="2o_0" arrivalPos="492.80" arrivalSpeed="10.42" duration="123.00" routeLength="989.70" waitingTime="8.00" waitingCount="1" stopTime="0.00" timeLoss="52.15" rerouteNo="0" devices="tripinfo_EW_146" vType="truck" speedFactor="1.00" vaporized=""/>
    <tripinfo id="EW_147" depart="150.00" departLane="4i_0" departPos="4.10" departSpeed="0.00" departDelay="3.00" arrival="271.00" arrivalLane="3o_0" arrivalPos="492.80" arrivalSpeed="8.89" duration="121.00" routeLength="995.90" waitingTime="8.00" waitingCount="1" stopTime="0.00" timeLoss="42.31" rerouteNo="0" devices="tripinfo_EW_147" vType="car" speedFactor="0.90" vaporized=""/>
    <tripinfo id="EW_165" depart="165.00" departLane="4i_0" departPos="4.10" departSpeed="0.00" departDelay="0.00" arrival="272.00" arrivalLane="1o_0" arrivalPos="492.80" arrivalSpeed="9.40" duration="107.00" routeLength="990.53" waitingTime="7.00" waitingCount="2" stopTime="0.00" timeLoss="31.99" rerouteNo="0" devices="tripinfo_EW_165" vType="car" speedFactor="0.94" vaporized=""/>
    <tripinfo id="EW_176" depart="176.00" departLane="4i_0" departPos="4.10" departSpeed="0.00" departDelay="0.00" arrival="273.00" arrivalLane="2o_0" arrivalPos="492.80" arrivalSpeed="10.11" duration="97.00" routeLength="995.70" waitingTime="0.00" waitingCount="0" stopTime="0.00" timeLoss="27.21" rerouteNo="0" devices="tripinfo_EW_176" vType="car" speedFactor="1.02" vaporized=""/>
    <tripinfo id="EW_181" depart="181.00" departLane="4i_0" departPos="4.10" departSpeed="0.00" departDelay="0.00" arrival="276.00" arrivalLane="2o_0" arrivalPos="492.80" arrivalSpeed="9.55" duration="95.00" routeLength="995.70" waitingTime="0.00" waitingCount="0" stopTime="0.00" timeLoss="22.36" rerouteNo="0" devices="tripinfo_EW_181" vType="car" speedFactor="0.97" vaporized=""/>
    <tripinfo id="EW_184" depart="184.00" departLane="4i_0" departPos="4.10" departSpeed="0.00" departDelay="0.00" arrival="278.00" arrivalLane="2o_0" arrivalPos="492.80" arrivalSpeed="11.19" duration="94.00" routeLength="995.70" waitingTime="0.00" waitingCount="0" stopTime="0.00" timeLoss="26.72" rerouteNo="0" devices="tripinfo_EW_184" vType="car" speedFactor="1.06" vaporized=""/>
    <tripinfo id="EW_200" depart="200.00" departLane="4i_0" departPos="4.10" departSpeed="0.00" departDelay="0.00" arrival="280.00" arrivalLane="3o_0" arrivalPos="492.80" arrivalSpeed="10.18" duration="80.00" routeLength="995.90" waitingTime="0.00" waitingCount="0" stopTime="0.00" timeLoss="9.14" rerouteNo="0" devices="tripinfo_EW_200" vType="car" speedFactor="1.01" vaporized=""/>
    <tripinfo id="SN_94" depart="94.00" departLane="3i_0" departPos="4.10" departSpeed="0.00" departDelay="0.00" arrival="281.00" arrivalLane="2o_0" arrivalPos="492.80" arrivalSpeed="12.39" duration="187.00" routeLength="990.53" waitingTime="95.00" waitingCount="4" stopTime="0.00" timeLoss="127.34" rerouteNo="0" devices="tripinfo_SN_94" vType="car" speedFactor="1.18" vaporized=""/>
    <tripinfo id="SN_101" depart="101.00" departLane="3i_0" departPos="4.10" departSpeed="0.00" departDelay="0.00" arrival="284.00" arrivalLane="2o_0" arrivalPos="492.80" arrivalSpeed="12.78" duration="183.00" routeLength="990.53" waitingTime="86.00" waitingCount="4" stopTime="0.00" timeLoss="122.05" rerouteNo="0" devices="tripinfo_SN_101" vType="car" speedFactor="1.17" vaporized=""/>
    <tripinfo id="SN_43" depart="43.00" departLane="3i_0" departPos="4.10" departSpeed="0.00" departDelay="0.00" arrival="289.00" arrivalLane="4o_0" arrivalPos="492.80" arrivalSpeed="10.08" duration="246.00" routeLength="995.90" waitingTime="142.00" waitingCount="4" stopTime="0.00" timeLoss="170.23" rerouteNo="0" devices="tripinfo_SN_43" vType="car" speedFactor="0.94" vaporized=""/>
    <tripinfo id="SN_27" depart="27.00" departLane="3i_0" departPos="4.10" departSpeed="0.00" departDelay="0.00" arrival="293.00" arrivalLane="1o_0" arrivalPos="492.80" arrivalSpeed="8.30" duration="266.00" routeLength="995.70" waitingTime="159.00" waitingCount="4" stopTime="0.00" timeLoss="183.46" rerouteNo="0" devices="tripinfo_SN_27" vType="car" speedFactor="0.86" vaporized=""/>
    <tripinfo id="SN_84" depart="84.00" departLane="3i_0" departPos="4.10" departSpeed="0.00" departDelay="0.00" arrival="295.00" arrivalLane="1o_0" arrivalPos="492.80" arrivalSpeed="11.93" duration="211.00" routeLength="995.70" waitingTime="104.00" waitingCount="4" stopTime="0.00" timeLoss="147.87" rerouteNo="0" devices="tripinfo_SN_84" vType="car" speedFactor="1.13" vaporized=""/>
    <tripinfo id="SN_107" depart="108.00" departLane="3i_0" departPos="4.10" departSpeed="0.00" departDelay="1.00" arrival="295.00" arrivalLane="4o_0" arrivalPos="492.80" arrivalSpeed="9.89" duration="187.00" routeLength="995.90" waitingTime="76.00" waitingCount="4" stopTime="0.00" timeLoss="113.73" rerouteNo="0" devices="tripinfo_SN_107" vType="car" speedFactor="0.97" vaporized=""/>
    <tripinfo id="SN_118" depart="118.00" departLane="3i_0" departPos="4.10" departSpeed="0.00" departDelay="0.00" arrival="298.00" arrivalLane="4o_0" arrivalPos="492.80" arrivalSpeed="9.90" duration="180.00" routeLength="995.90" waitingTime="65.00" waitingCount="4" stopTime="0.00" timeLoss="105.31" rerouteNo="0" devices="tripinfo_SN_118" vType="car" speedFactor="0.96" vaporized=""/>
    <tripinfo id="EW_219" depart="219.00" departLane="4i_0" departPos="4.10" departSpeed="0.00" departDelay="0.00" arrival="299.00" arrivalLane="3o_0" arrivalPos="492.80" arrivalSpeed="10.24" duration="80.00" routeLength="995.90" waitingTime="0.00" waitingCount="0" stopTime="0.00" timeLoss="8.69" rerouteNo="0" devices="tripinfo_EW_219" vType="car" speedFactor="1.00" vaporized=""/>
    <tripinfo id="EW_221" depart="222.00" departLane="4i_0" departPos="4.10" departSpeed="0.00" departDelay="1.00" arrival="300.00" arrivalLane="3o_0" arrivalPos="492.80" arrivalSpeed="10.79" duration="78.00" routeLength="995.90" waitingTime="0.00" waitingCount="0" stopTime="0.00" timeLoss="10.24" rerouteNo="0" devices="tripinfo_EW_221" vType="car" speedFactor="1.04" vaporized=""/>
    <tripinfo id="SN_119" depart="121.00" departLane="3i_0" departPos="4.10" departSpeed="0.00" departDelay="2.00" arrival="302.00" arrivalLane="1o_0" arrivalPos="492.80" arrivalSpeed="11.42" duration="181.00" routeLength="995.70" waitingTime="65.00" waitingCount="5" stopTime="0.00" timeLoss="112.87" rerouteNo="0" devices="tripinfo_SN_119" vType="car" speedFactor="1.04" vaporized=""/>
    <tripinfo id="SN_127" depart="127.00" departLane="3i_0" departPos="4.10" departSpeed="0.00" departDelay="0.00" arrival="307.00" arrivalLane="4o_0" arrivalPos="492.80" arrivalSpeed="11.01" duration="180.00" routeLength="995.90" waitingTime="58.00" waitingCount="5" stopTime="0.00" timeLoss="109.00" rerouteNo="0" devices="tripinfo_SN_127" vType="car" speedFactor="1.00" vaporized=""/>
    <tripinfo id="EW_231" depart="231.00" departLane="4i_0" departPos="4.10" departSpeed="0.00" departDelay="0.00" arrival="312.00" arrivalLane="2o_0" arrivalPos="492.80" arrivalSpeed="11.23" duration="81.00" routeLength="995.70" waitingTime="0.00" waitingCount="0" stopTime="0.00" timeLoss="11.44" rerouteNo="0" devices="tripinfo_EW_231" vType="car" speedFactor="1.02" vaporized=""/>
    <tripinfo id="EW_244" depart="244.00" departLane="4i_0" departPos="4.10" departSpeed="0.00" departDelay="0.00" arrival="322.00" arrivalLane="3o_0" arrivalPos="492.80" arrivalSpeed="10.90" duration="78.00" routeLength="995.90" waitingTime="0.00" waitingCount="0" stopTime="0.00" timeLoss="8.02" rerouteNo="0" devices="tripinfo_EW_244" vType="car" speedFactor="1.01" vaporized=""/>
    <tripinfo id="EW_248" depart="248.00" departLane="4i_0" departPos="4.10" departSpeed="0.00" departDelay="0.00" arrival="324.00" arrivalLane="3o_0" arrivalPos="492.80" arrivalSpeed="11.69" duration="76.00" routeLength="995.90" waitingTime="0.00" waitingCount="0" stopTime="0.00" timeLoss="12.66" rerouteNo="0" devices="tripinfo_EW_248" vType="car" speedFactor="1.12" vaporized=""/>
    <tripinfo id="EW_250" depart="251.00" departLane="4i_0" departPos="4.10" departSpeed="0.00" departDelay="1.00" arrival="326.00" arrivalLane="2o_0" arrivalPos="492.80" arrivalSpeed="11.02" duration="75.00" routeLength="995.70" waitingTime="0.00" waitingCount="0" stopTime="0.00" timeLoss="9.93" rerouteNo="0" devices="tripinfo_EW_250" vType="car" speedFactor="1.10" vaporized=""/>
    <tripinfo id="EW_253" depart="254.00" departLane="4i_0" departPos="4.10" departSpeed="0.00" departDelay="1.00" arrival="329.00" arrivalLane="1o_0" arrivalPos="492.80" arrivalSpeed="11.34" duration="75.00" routeLength="990.53" waitingTime="0.00" waitingCount="0" stopTime="0.00" timeLoss="8.38" rerouteNo="0" devices="tripinfo_EW_253" vType="car" speedFactor="1.06" vaporized=""/>
    <tripinfo id="SN_137" depart="137.00" departLane="3i_0" departPos="10.10" departSpeed="0.00" departDelay="0.00" arrival="339.00" arrivalLane="4o_0" arrivalPos="492.80" arrivalSpeed="10.84" duration="202.00" routeLength="989.90" waitingTime="76.00" waitingCount="4" stopTime="0.00" timeLoss="131.66" rerouteNo="0" devices="tripinfo_SN_137" vType="truck" speedFactor="1.01" vaporized=""/>
    <tripinfo id="SN_153" depart="155.00" departLane="3i_0" departPos="4.10" departSpeed="0.00" departDelay="2.00" arrival="341.00" arrivalLane="4o_0" arrivalPos="492.80" arrivalSpeed="11.17" duration="186.00" routeLength="995.90" waitingTime="71.00" waitingCount="3" stopTime="0.00" timeLoss="120.48" rerouteNo="0" devices="tripinfo_SN_153" vType="car" speedFactor="1.08" vaporized=""/>
    <tripinfo id="SN_132" depart="132.00" departLane="3i_0" departPos="4.10" departSpeed="0.00" departDelay="0.00" arrival="343.00" arrivalLane="1o_0" arrivalPos="492.80" arrivalSpeed="9.07" duration="211.00" routeLength="995.70" waitingTime="76.00" waitingCount="4" stopTime="0.00" timeLoss="130.04" rerouteNo="0" devices="tripinfo_SN_132" vType="car" speedFactor="0.88" vaporized=""/>
    <tripinfo id="SN_155" depart="158.00" departLane="3i_0" departPos="4.10" departSpeed="0.00" departDelay="3.00" arrival="343.00" arrivalLane="4o_0" arrivalPos="492.80" arrivalSpeed="11.52" duration="185.00" routeLength="995.90" waitingTime="71.00" waitingCount="3" stopTime="0.00" timeLoss="121.24" rerouteNo="0" devices="tripinfo_SN_155" vType="car" speedFactor="1.12" vaporized=""/>
    <tripinfo id="SN_152" depart="152.00" departLane="3i_0" departPos="4.10" departSpeed="0.00" departDelay="0.00" arrival="345.00" arrivalLane="1o_0" arrivalPos="492.80" arrivalSpeed="10.09" duration="193.00" routeLength="995.70" waitingTime="74.00" waitingCount="3" stopTime="0.00" timeLoss="119.56" rerouteNo="0" devices="tripinfo_SN_152" vType="car" speedFactor="0.97" vaporized=""/>
    <tripinfo id="SN_165" depart="165.00" departLane="3i_0" departPos="4.10" departSpeed="0.00" departDelay="0.00" arrival="353.00" arrivalLane="4o_0" arrivalPos="492.80" arrivalSpeed="8.82" duration="188.00" routeLength="995.90" waitingTime="63.00" waitingCount="3" stopTime="0.00" timeLoss="110.14" rerouteNo="0" devices="tripinfo_SN_165" vType="car" speedFactor="0.91" vaporized=""/>