<?xml version="1.0" encoding="UTF-8"?>

<!-- generated on 2024-05-04 16:30:21 by Eclipse SUMO sumo Version 1.19.0
<configuration xmlns:xsi="http://www.w3.org/2001/XMLSchema-instance" xsi:noNamespaceSchemaLocation="http://sumo.dlr.de/xsd/sumoConfiguration.xsd">

    <input>
        <net-file value="working/./test5.net.xml"/>
        <route-files value="working/./gen_route.rou.xml"/>
    </input>

    <output>
        <tripinfo-output value="tripinfo_epi4.xml"/>
    </output>

    <report>
        <no-warnings value="true"/>
    </report>

    <traci_server>
        <remote-port value="50424"/>
    </traci_server>

</configuration>
-->

<tripinfos xmlns:xsi="http://www.w3.org/2001/XMLSchema-instance" xsi:noNamespaceSchemaLocation="http://sumo.dlr.de/xsd/tripinfo_file.xsd">
    <tripinfo id="WE_7" depart="9.00" departLane="1i_0" departPos="4.10" departSpeed="0.00" departDelay="2.00" arrival="89.00" arrivalLane="2o_0" arrivalPos="492.80" arrivalSpeed="10.46" duration="80.00" routeLength="995.90" waitingTime="0.00" waitingCount="0" stopTime="0.00" timeLoss="9.50" rerouteNo="0" devices="tripinfo_WE_7" vType="car" speedFactor="1.01" vaporized=""/>
    <tripinfo id="WE_6" depart="6.00" departLane="1i_0" departPos="4.10" departSpeed="0.00" departDelay="0.00" arrival="91.00" arrivalLane="4o_0" arrivalPos="492.80" arrivalSpeed="10.34" duration="85.00" routeLength="995.70" waitingTime="0.00" waitingCount="0" stopTime="0.00" timeLoss="9.76" rerouteNo="0" devices="tripinfo_WE_6" vType="car" speedFactor="0.94" vaporized=""/>
    <tripinfo id="NS_14" depart="14.00" departLane="2i_0" departPos="4.10" departSpeed="0.00" departDelay="0.00" arrival="91.00" arrivalLane="1o_0" arrivalPos="492.80" arrivalSpeed="10.19" duration="77.00" routeLength="995.90" waitingTime="0.00" waitingCount="0" stopTime="0.00" timeLoss="8.22" rerouteNo="0" devices="tripinfo_NS_14" vType="car" speedFactor="1.03" vaporized=""/>
    <tripinfo id="SN_2" depart="2.00" departLane="3i_0" departPos="4.10" departSpeed="0.00" departDelay="0.00" arrival="96.00" arrivalLane="2o_0" arrivalPos="492.80" arrivalSpeed="11.19" duration="94.00" routeLength="990.53" waitingTime="14.00" waitingCount="1" stopTime="0.00" timeLoss="26.99" rerouteNo="0" devices="tripinfo_SN_2" vType="car" speedFactor="1.06" vaporized=""/>
    <tripinfo id="SN_11" depart="11.00" departLane="3i_0" departPos="4.10" departSpeed="0.00" departDelay="0.00" arrival="99.00" arrivalLane="4o_0" arrivalPos="492.80" arrivalSpeed="11.83" duration="88.00" routeLength="995.90" waitingTime="7.00" waitingCount="1" stopTime="0.00" timeLoss="22.14" rerouteNo="0" devices="tripinfo_SN_11" vType="car" speedFactor="1.08" vaporized=""/>
    <tripinfo id="EW_16" depart="18.00" departLane="4i_0" departPos="4.10" departSpeed="0.00" departDelay="2.00" arrival="110.00" arrivalLane="3o_0" arrivalPos="492.80" arrivalSpeed="10.61" duration="92.00" routeLength="995.90" waitingTime="4.00" waitingCount="1" stopTime="0.00" timeLoss="24.60" rerouteNo="0" devices="tripinfo_EW_16" vType="car" speedFactor="1.05" vaporized=""/>
    <tripinfo id="WE_19" depart="19.00" departLane="1i_0" departPos="4.10" departSpeed="0.00" departDelay="0.00" arrival="112.00" arrivalLane="4o_0" arrivalPos="492.80" arrivalSpeed="9.66" duration="93.00" routeLength="995.70" waitingTime="0.00" waitingCount="0" stopTime="0.00" timeLoss="12.97" rerouteNo="0" devices="tripinfo_WE_19" vType="car" speedFactor="0.89" vaporized=""/>
    <tripinfo id="WE_39" depart="39.00" departLane="1i_0" departPos="4.10" departSpeed="0.00" departDelay="0.00" arrival="112.00" arrivalLane="3o_0" arrivalPos="492.80" arrivalSpeed="11.89" duration="73.00" routeLength="990.53" waitingTime="0.00" waitingCount="0" stopTime="0.00" timeLoss="8.27" rerouteNo="0" devices="tripinfo_WE_39" vType="car" speedFactor="1.09" vaporized=""/>
    <tripinfo id="EW_15" depart="15.00" departLane="4i_0" departPos="4.10" departSpeed="0.00" departDelay="0.00" arrival="115.00" arrivalLane="2o_0" arrivalPos="492.80" arrivalSpeed="8.49" duration="100.00" routeLength="995.70" waitingTime="0.00" waitingCount="0" stopTime="0.00" timeLoss="14.68" rerouteNo="0" devices="tripinfo_EW_15" vType="car" speedFactor="0.83" vaporized=""/>
    <tripinfo id="WE_27" depart="27.00" departLane="1i_0" departPos="4.10" departSpeed="0.00" departDelay="0.00" arrival="119.00" arrivalLane="2o_0" arrivalPos="492.80" arrivalSpeed="9.25" duration="92.00" routeLength="995.90" waitingTime="0.00" waitingCount="0" stopTime="0.00" timeLoss="9.28" rerouteNo="0" devices="tripinfo_WE_27" vType="car" speedFactor="0.86" vaporized=""/>
    <tripinfo id="NS_48" depart="48.00" departLane="2i_0" departPos="4.10" departSpeed="0.00" departDelay="0.00" arrival="122.00" arrivalLane="3o_0" arrivalPos="492.80" arrivalSpeed="12.12" duration="74.00" routeLength="995.70" waitingTime="0.00" waitingCount="0" stopTime="0.00" timeLoss="10.25" rerouteNo="0" devices="tripinfo_NS_48" vType="car" speedFactor="1.12" vaporized=""/>
    <tripinfo id="NS_62" depart="62.00" departLane="2i_0" departPos="4.10" departSpeed="0.00" departDelay="0.00" arrival="132.00" arrivalLane="4o_0" arrivalPos="492.80" arrivalSpeed="11.71" duration="70.00" routeLength="990.53" waitingTime="0.00" waitingCount="0" stopTime="0.00" timeLoss="9.17" rerouteNo="0" devices="tripinfo_NS_62" vType="car" speedFactor="1.16" vaporized=""/>
    <tripinfo id="WE_50" depart="50.00" departLane="1i_0" departPos="10.10" departSpeed="0.00" departDelay="0.00" arrival="133.00" arrivalLane="2o_0" arrivalPos="492.80" arrivalSpeed="10.66" duration="83.00" routeLength="989.90" waitingTime="0.00" waitingCount="0" stopTime="0.00" timeLoss="11.87" rerouteNo="0" devices="tripinfo_WE_50" vType="truck" speedFactor="1.00" vaporized=""/>
    <tripinfo id="NS_52" depart="52.00" departLane="2i_0" departPos="4.10" departSpeed="0.00" departDelay="0.00" arrival="145.00" arrivalLane="3o_0" arrivalPos="492.80" arrivalSpeed="8.96" duration="93.00" routeLength="995.70" waitingTime="1.00" waitingCount="1" stopTime="0.00" timeLoss="12.39" rerouteNo="0" devices="tripinfo_NS_52" vType="car" speedFactor="0.88" vaporized=""/>
    <tripinfo id="SN_24" depart="24.00" departLane="3i_0" departPos="4.10" departSpeed="0.00" departDelay="0.00" arrival="150.00" arrivalLane="2o_0" arrivalPos="492.80" arrivalSpeed="10.12" duration="126.00" routeLength="990.53" waitingTime="37.00" waitingCount="2" stopTime="0.00" timeLoss="50.68" rerouteNo="0" devices="tripinfo_SN_24" vType="car" speedFactor="0.94" vaporized=""/>
    <tripinfo id="WE_73" depart="73.00" departLane="1i_0" departPos="4.10" departSpeed="0.00" departDelay="0.00" arrival="152.00" arrivalLane="2o_0" arrivalPos="492.80" arrivalSpeed="10.37" duration="79.00" routeLength="995.90" waitingTime="0.00" waitingCount="0" stopTime="0.00" timeLoss="8.80" rerouteNo="0" devices="tripinfo_WE_73" vType="car" speedFactor="1.01" vaporized=""/>
    <tripinfo id="SN_44" depart="44.00" departLane="3i_0" departPos="4.10" departSpeed="0.00" departDelay="0.00" arrival="159.00" arrivalLane="4o_0" arrivalPos="492.80" arrivalSpeed="11.09" duration="115.00" routeLength="995.90" waitingTime="27.00" waitingCount="2" stopTime="0.00" timeLoss="46.97" rerouteNo="0" devices="tripinfo_SN_44" vType="car" speedFactor="1.05" vaporized=""/>
    <tripinfo id="EW_39" depart="39.00" departLane="4i_0" departPos="10.10" departSpeed="0.00" departDelay="0.00" arrival="166.00" arrivalLane="2o_0" arrivalPos="492.80" arrivalSpeed="10.68" duration="127.00" routeLength="989.70" waitingTime="32.00" waitingCount="2" stopTime="0.00" timeLoss="56.93" rerouteNo="0" devices="tripinfo_EW_39" vType="truck" speedFactor="1.01" vaporized=""/>
    <tripinfo id="EW_65" depart="65.00" departLane="4i_0" departPos="4.10" departSpeed="0.00" departDelay="0.00" arrival="169.00" arrivalLane="1o_0" arrivalPos="492.80" arrivalSpeed="10.74" duration="104.00" routeLength="990.53" waitingTime="13.00" waitingCount="1" stopTime="0.00" timeLoss="34.48" rerouteNo="0" devices="tripinfo_EW_65" vType="car" speedFactor="1.02" vaporized=""/>
    <tripinfo id="EW_78" depart="78.00" departLane="4i_0" departPos="4.10" departSpeed="0.00" departDelay="0.00" arrival="177.00" arrivalLane="1o_0" arrivalPos="492.80" arrivalSpeed="10.62" duration="99.00" routeLength="990.53" waitingTime="2.00" waitingCount="1" stopTime="0.00" timeLoss="26.05" rerouteNo="0" devices="tripinfo_EW_78" vType="car" speedFactor="0.97" vaporized=""/>
    <tripinfo id="SN_51" depart="51.00" departLane="3i_0" departPos="10.10" departSpeed="0.00" departDelay="0.00" arrival="179.00" arrivalLane="4o_0" arrivalPos="492.80" arrivalSpeed="10.29" duration="128.00" routeLength="989.90" waitingTime="22.00" waitingCount="4" stopTime="0.00" timeLoss="54.99" rerouteNo="0" devices="tripinfo_SN_51" vType="truck" speedFactor="0.96" vaporized=""/>
    <tripinfo id="WE_90" depart="91.00" departLane="1i_0" departPos="4.10" departSpeed="0.00" departDelay="1.00" arrival="186.00" arrivalLane="3o_0" arrivalPos="492.80" arrivalSpeed="8.56" duration="95.00" routeLength="990.53" waitingTime="0.00" waitingCount="0" stopTime="0.00" timeLoss="9.77" rerouteNo="0" devices="tripinfo_WE_90" vType="car" speedFactor="0.83" vaporized=""/>
    <tripinfo id="WE_100" depart="100.00" departLane="1i_0" departPos="4.10" departSpeed="0.00" departDelay="0.00" arrival="187.00" arrivalLane="2o_0" arrivalPos="492.80" arrivalSpeed="9.09" duration="87.00" routeLength="995.90" waitingTime="0.00" waitingCount="0" stopTime="0.00" timeLoss="10.43" rerouteNo="0" devices="tripinfo_WE_100" vType="car" speedFactor="0.93" vaporized=""/>
    <tripinfo id="WE_92" depart="95.00" departLane="1i_0" departPos="10.10" departSpeed="0.00" departDelay="3.00" arrival="188.00" arrivalLane="3o_0" arrivalPos="492.80" arrivalSpeed="10.21" duration="93.00" routeLength="984.53" waitingTime="0.00" waitingCount="0" stopTime="0.00" timeLoss="18.23" rerouteNo="0" devices="tripinfo_WE_92" vType="truck" speedFactor="0.94" vaporized=""/>
    <tripinfo id="NS_94" depart="96.00" departLane="2i_0" departPos="4.10" departSpeed="0.00" departDelay="2.00" arrival="188.00" arrivalLane="1o_0" arrivalPos="492.80" arrivalSpeed="10.01" duration="92.00" routeLength="995.90" waitingTime="1.00" waitingCount="1" stopTime="0.00" timeLoss="14.17" rerouteNo="0" devices="tripinfo_NS_94" vType="car" speedFactor="0.92" vaporized=""/>
    <tripinfo id="NS_110" depart="110.00" departLane="2i_0" departPos="4.10" departSpeed="0.00" departDelay="0.00" arrival="191.00" arrivalLane="3o_0" arrivalPos="492.80" arrivalSpeed="12.63" duration="81.00" routeLength="995.70" waitingTime="0.00" waitingCount="0" stopTime="0.00" timeLoss="19.81" rerouteNo="0" devices="tripinfo_NS_110" vType="car" speedFactor="1.17" vaporized=""/>
    <tripinfo id="NS_118" depart="119.00" departLane="2i_0" departPos="4.10" departSpeed="0.00" departDelay="1.00" arrival="191.00" arrivalLane="4o_0" arrivalPos="492.80" arrivalSpeed="11.70" duration="72.00" routeLength="990.53" waitingTime="0.00" waitingCount="0" stopTime="0.00" timeLoss="8.00" rerouteNo="0" devices="tripinfo_NS_118" vType="car" speedFactor="1.10" vaporized=""/>
    <tripinfo id="WE_114" depart="114.00" departLane="1i_0" departPos="4.10" departSpeed="0.00" departDelay="0.00" arrival="193.00" arrivalLane="3o_0" arrivalPos="492.80" arrivalSpeed="10.70" duration="79.00" routeLength="990.53" waitingTime="0.00" waitingCount="0" stopTime="0.00" timeLoss="7.61" rerouteNo="0" devices="tripinfo_WE_114" vType="car" speedFactor="0.99" vaporized=""/>
    <tripinfo id="WE_115" depart="116.00" departLane="1i_0" departPos="4.10" departSpeed="0.00" departDelay="1.00" arrival="195.00" arrivalLane="2o_0" arrivalPos="492.80" arrivalSpeed="10.71" duration="79.00" routeLength="995.90" waitingTime="1.00" waitingCount="1" stopTime="0.00" timeLoss="9.21" rerouteNo="0" devices="tripinfo_WE_115" vType="car" speedFactor="1.02" vaporized=""/>
    <tripinfo id="WE_118" depart="120.00" departLane="1i_0" departPos="4.10" departSpeed="0.00" departDelay="2.00" arrival="201.00" arrivalLane="3o_0" arrivalPos="492.80" arrivalSpeed="10.20" duration="81.00" routeLength="990.53" waitingTime="0.00" waitingCount="0" stopTime="0.00" timeLoss="8.29" rerouteNo="0" devices="tripinfo_WE_118" vType="car" speedFactor="0.97" vaporized=""/>
    <tripinfo id="EW_95" depart="95.00" departLane="4i_0" departPos="4.10" departSpeed="0.00" departDelay="0.00" arrival="202.00" arrivalLane="2o_0" arrivalPos="492.80" arrivalSpeed="9.86" duration="107.00" routeLength="995.70" waitingTime="17.00" waitingCount="1" stopTime="0.00" timeLoss="32.29" rerouteNo="0" devices="tripinfo_EW_95" vType="car" speedFactor="0.95" vaporized=""/>
    <tripinfo id="EW_96" depart="99.00" departLane="4i_0" departPos="4.10" departSpeed="0.00" departDelay="3.00" arrival="202.00" arrivalLane="3o_0" arrivalPos="492.80" arrivalSpeed="12.23" duration="103.00" routeLength="995.90" waitingTime="17.00" waitingCount="1" stopTime="0.00" timeLoss="40.58" rerouteNo="0" devices="tripinfo_EW_96" vType="car" speedFactor="1.13" vaporized=""/>
    <tripinfo id="SN_52" depart="55.00" departLane="3i_0" departPos="4.10" departSpeed="0.00" departDelay="3.00" arrival="203.00" arrivalLane="1o_0" arrivalPos="492.80" arrivalSpeed="9.23" duration="148.00" routeLength="995.70" waitingTime="37.00" waitingCount="5" stopTime="0.00" timeLoss="72.71" rerouteNo="0" devices="tripinfo_SN_52" vType="car" speedFactor="0.94" vaporized=""/>
    <tripinfo id="SN_57" depart="58.00" departLane="3i_0" departPos="4.10" departSpeed="0.00" departDelay="1.00" arrival="210.00" arrivalLane="4o_0" arrivalPos="492.80" arrivalSpeed="9.44" duration="152.00" routeLength="995.90" waitingTime="35.00" waitingCount="6" stopTime="0.00" timeLoss="75.81" rerouteNo="0" devices="tripinfo_SN_57" vType="car" speedFactor="0.94" vaporized=""/>
    <tripinfo id="NS_125" depart="125.00" departLane="2i_0" departPos="4.10" departSpeed="0.00" departDelay="0.00" arrival="210.00" arrivalLane="3o_0" arrivalPos="492.80" arrivalSpeed="11.40" duration="85.00" routeLength="995.70" waitingTime="2.00" waitingCount="1" stopTime="0.00" timeLoss="16.18" rerouteNo="0" devices="tripinfo_NS_125" vType="car" speedFactor="1.03" vaporized=""/>
    <tripinfo id="EW_101" depart="102.00" departLane="4i_0" departPos="4.10" departSpeed="0.00" departDelay="1.00" arrival="215.00" arrivalLane="2o_0" arrivalPos="492.80" arrivalSpeed="12.37" duration="113.00" routeLength="995.70" waitingTime="24.00" waitingCount="3" stopTime="0.00" timeLoss="52.66" rerouteNo="0" devices="tripinfo_EW_101" vType="car" speedFactor="1.18" vaporized=""/>
    <tripinfo id="WE_130" depart="130.00" departLane="1i_0" departPos="4.10" departSpeed="0.00" departDelay="0.00" arrival="216.00" arrivalLane="3o_0" arrivalPos="492.80" arrivalSpeed="11.43" duration="86.00" routeLength="990.53" waitingTime="7.00" waitingCount="1" stopTime="0.00" timeLoss="21.33" rerouteNo="0" devices="tripinfo_WE_130" vType="car" speedFactor="1.09" vaporized=""/>
    <tripinfo id="WE_125" depart="125.00" departLane="1i_0" departPos="4.10" departSpeed="0.00" departDelay="0.00" arrival="224.00" arrivalLane="4o_0" arrivalPos="492.80" arrivalSpeed="9.25" duration="99.00" routeLength="995.70" waitingTime="8.00" waitingCount="1" stopTime="0.00" timeLoss="20.59" rerouteNo="0" devices="tripinfo_WE_125" vType="car" speedFactor="0.90" vaporized=""/>
    <tripinfo id="WE_133" depart="133.00" departLane="1i_0" departPos="4.10" departSpeed="0.00" departDelay="0.00" arrival="226.00" arrivalLane="4o_0" arrivalPos="492.80" arrivalSpeed="11.44" duration="93.00" routeLength="995.70" waitingTime="5.00" waitingCount="1" stopTime="0.00" timeLoss="24.61" rerouteNo="0" devices="tripinfo_WE_133" vType="car" speedFactor="1.04" vaporized=""/>
    <tripinfo id="NS_148" depart="148.00" departLane="2i_0" departPos="4.10" departSpeed="0.00" departDelay="0.00" arrival="228.00" arrivalLane="4o_0" arrivalPos="492.80" arrivalSpeed="10.59" duration="80.00" routeLength="990.53" waitingTime="0.00" waitingCount="0" stopTime="0.00" timeLoss="8.94" rerouteNo="0" devices="tripinfo_NS_148" vType="car" speedFactor="1.00" vaporized=""/>
    <tripinfo id="NS_155" depart="155.00" departLane="2i_0" departPos="4.10" departSpeed="0.00" departDelay="0.00" arrival="246.00" arrivalLane="1o_0" arrivalPos="492.80" arrivalSpeed="8.53" duration="91.00" routeLength="995.90" waitingTime="0.00" waitingCount="0" stopTime="0.00" timeLoss="7.90" rerouteNo="0" devices="tripinfo_NS_155" vType="car" speedFactor="0.85" vaporized=""/>
    <tripinfo id="NS_156" depart="157.00" departLane="2i_0" departPos="4.10" departSpeed="0.00" departDelay="1.00" arrival="249.00" arrivalLane="1o_0" arrivalPos="492.80" arrivalSpeed="8.82" duration="92.00" routeLength="995.90" waitingTime="0.00" waitingCount="0" stopTime="0.00" timeLoss="9.06" rerouteNo="0" devices="tripinfo_NS_156" vType="car" speedFactor="0.85" vaporized=""/>
    <tripinfo id="NS_168" depart="168.00" departLane="2i_0" departPos="4.10" departSpeed="0.00" departDelay="0.00" arrival="250.00" arrivalLane="3o_0" arrivalPos="492.80" arrivalSpeed="10.35" duration="82.00" routeLength="995.70" waitingTime="0.00" waitingCount="0" stopTime="0.00" timeLoss="10.37" rerouteNo="0" devices="tripinfo_NS_168" vType="car" speedFactor="1.00" vaporized=""/>
    <tripinfo id="EW_118" depart="118.00" departLane="4i_0" departPos="4.10" departSpeed="0.00" departDelay="0.00" arrival="251.00" arrivalLane="1o_0" arrivalPos="492.80" arrivalSpeed="12.21" duration="133.00" routeLength="990.53" waitingTime="37.00" waitingCount="3" stopTime="0.00" timeLoss="72.70" rerouteNo="0" devices="tripinfo_EW_118" vType="car" speedFactor="1.18" vaporized=""/>
    <tripinfo id="WE_168" depart="169.00" departLane="1i_0" departPos="4.10" departSpeed="0.00" departDelay="1.00" arrival="254.00" arrivalLane="3o_0" arrivalPos="492.80" arrivalSpeed="11.80" duration="85.00" routeLength="990.53" waitingTime="0.00" waitingCount="0" stopTime="0.00" timeLoss="20.01" rerouteNo="0" devices="tripinfo_WE_168" vType="car" speedFactor="1.10" vaporized=""/>
    <tripinfo id="SN_83" depart="83.00" departLane="3i_0" departPos="4.10" departSpeed="0.00" departDelay="0.00" arrival="260.00" arrivalLane="4o_0" arrivalPos="492.80" arrivalSpeed="9.30" duration="177.00" routeLength="995.90" waitingTime="60.00" waitingCount="5" stopTime="0.00" timeLoss="97.02" rerouteNo="0" devices="tripinfo_SN_83" vType="car" speedFactor="0.89" vaporized=""/>
    <tripinfo id="WE_165" depart="165.00" departLane="1i_0" departPos="10.10" departSpeed="0.00" departDelay="0.00" arrival="262.00" arrivalLane="4o_0" arrivalPos="492.80" arrivalSpeed="10.40" duration="97.00" routeLength="989.70" waitingTime="0.00" waitingCount="0" stopTime="0.00" timeLoss="30.79" rerouteNo="0" devices="tripinfo_WE_165" vType="truck" speedFactor="1.08" vaporized=""/>
    <tripinfo id="SN_105" depart="105.00" departLane="3i_0" departPos="4.10" departSpeed="0.00" departDelay="0.00" arrival="264.00" arrivalLane="4o_0" arrivalPos="492.80" arrivalSpeed="12.68" duration="159.00" routeLength="995.90" waitingTime="58.00" waitingCount="4" stopTime="0.00" timeLoss="97.64" rerouteNo="0" devices="tripinfo_SN_105" vType="car" speedFactor="1.15" vaporized=""/>
    <tripinfo id="EW_126" depart="126.00" departLane="4i_0" departPos="4.10" departSpeed="0.00" departDelay="0.00" arrival="264.00" arrivalLane="3o_0" arrivalPos="492.80" arrivalSpeed="9.99" duration="138.00" routeLength="995.90" waitingTime="37.00" waitingCount="3" stopTime="0.00" timeLoss="64.19" rerouteNo="0" devices="tripinfo_EW_126" vType="car" speedFactor="0.96" vaporized=""/>
    <tripinfo id="WE_184" depart="184.00" departLane="1i_0" departPos="4.10" departSpeed="0.00" departDelay="0.00" arrival="267.00" arrivalLane="2o_0" arrivalPos="492.80" arrivalSpeed="9.98" duration="83.00" routeLength="995.90" waitingTime="0.00" waitingCount="0" stopTime="0.00" timeLoss="9.39" rerouteNo="0" devices="tripinfo_WE_184" vType="car" speedFactor="0.97" vaporized=""/>
    <tripinfo id="EW_145" depart="145.00" departLane="4i_0" departPos="4.10" departSpeed="0.00" departDelay="0.00" arrival="274.00" arrivalLane="3o_0" arrivalPos="492.80" arrivalSpeed="11.65" duration="129.00" routeLength="995.90" waitingTime="44.00" waitingCount="3" stopTime="0.00" timeLoss="64.03" rerouteNo="0" devices="tripinfo_EW_145" vType="car" speedFactor="1.09" vaporized=""/>
    <tripinfo id="SN_106" depart="108.00" departLane="3i_0" departPos="4.10" departSpeed="0.00" departDelay="2.00" arrival="281.00" arrivalLane="1o_0" arrivalPos="492.80" arrivalSpeed="10.22" duration="173.00" routeLength="995.70" waitingTime="67.00" waitingCount="6" stopTime="0.00" timeLoss="102.61" rerouteNo="0" devices="tripinfo_SN_106" vType="car" speedFactor="1.01" vaporized=""/>
    <tripinfo id="WE_198" depart="198.00" departLane="1i_0" departPos="10.10" departSpeed="0.00" departDelay="0.00" arrival="282.00" arrivalLane="2o_0" arrivalPos="492.80" arrivalSpeed="10.91" duration="84.00" routeLength="989.90" waitingTime="0.00" waitingCount="0" stopTime="0.00" timeLoss="13.85" rerouteNo="0" devices="tripinfo_WE_198" vType="truck" speedFactor="1.01" vaporized=""/>
    <tripinfo id="NS_201" depart="202.00" departLane="2i_0" departPos="4.10" departSpeed="0.00" departDelay="1.00" arrival="291.00" arrivalLane="3o_0" arrivalPos="492.80" arrivalSpeed="9.31" duration="89.00" routeLength="995.70" waitingTime="1.00" waitingCount="1" stopTime="0.00" timeLoss="13.21" rerouteNo="0" devices="tripinfo_NS_201" vType="car" speedFactor="0.94" vaporized=""/>
    <tripinfo id="NS_211" depart="211.00" departLane="2i_0" departPos="4.10" departSpeed="0.00" departDelay="0.00" arrival="299.00" arrivalLane="3o_0" arrivalPos="492.80" arrivalSpeed="9.62" duration="88.00" routeLength="995.70" waitingTime="0.00" waitingCount="0" stopTime="0.00" timeLoss="9.85" rerouteNo="0" devices="tripinfo_NS_211" vType="car" speedFactor="0.91" vaporized=""/>
    <tripinfo id="NS_227" depart="227.00" departLane="2i_0" departPos="4.10" departSpeed="0.00" departDelay="0.00" arrival="304.00" arrivalLane="1o_0" arrivalPos="492.80" arrivalSpeed="10.87" duration="77.00" routeLength="995.90" waitingTime="0.00" waitingCount="0" stopTime="0.00" timeLoss="7.98" rerouteNo="0" devices="tripinfo_NS_227" vType="car" speedFactor="1.02" vaporized=""/>
    <tripinfo id="NS_232" depart="232.00" departLane="2i_0" departPos="10.10" departSpeed="0.00" departDelay="0.00" arrival="314.00" arrivalLane="1o_0" arrivalPos="492.80" arrivalSpeed="11.17" duration="82.00" routeLength="989.90" waitingTime="0.00" waitingCount="0" stopTime="0.00" timeLoss="13.42" rerouteNo="0" devices="tripinfo_NS_232" vType="truck" speedFactor="1.03" vaporized=""/>
    <tripinfo id="EW_168" depart="168.00" departLane="4i_0" departPos="4.10" departSpeed="0.00" departDelay="0.00" arrival="327.00" arrivalLane="3o_0" arrivalPos="492.80" arrivalSpeed="10.25" duration="159.00" routeLength="995.90" waitingTime="61.00" waitingCount="4" stopTime="0.00" timeLoss="88.50" rerouteNo="0" devices="tripinfo_EW_168" vType="car" speedFactor="1.00" vaporized=""/>
    <tripinfo id="SN_142" depart="142.00" departLane="3i_0" departPos="4.10" departSpeed="0.00" departDelay="0.00" arrival="328.00" arrivalLane="1o_0" arrivalPos="492.80" arrivalSpeed="11.14" duration="186.00" routeLength="995.70" waitingTime="86.00" waitingCount="5" stopTime="0.00" timeLoss="118.31" rerouteNo="0" devices="tripinfo_SN_142" vType="car" speedFactor="1.04" vaporized=""/>
    <tripinfo id="WE_255" depart="255.00" departLane="1i_0" departPos="4.10" departSpeed="0.00" departDelay="0.00" arrival="336.00" arrivalLane="3o_0" arrivalPos="492.80" arrivalSpeed="10.87" duration="81.00" routeLength="990.53" waitingTime="0.00" waitingCount="0" stopTime="0.00" timeLoss="8.49" rerouteNo="0" devices="tripinfo_WE_255" vType="car" speedFactor="0.98" vaporized=""/>
    <tripinfo id="SN_153" depart="153.00" departLane="3i_0" departPos="4.10" departSpeed="0.00" departDelay="0.00" arrival="352.00" arrivalLane="4o_0" arrivalPos="492.80" arrivalSpeed="9.08" duration="199.00" routeLength="995.90" waitingTime="85.00" waitingCount="5" stopTime="0.00" timeLoss="120.52" rerouteNo="0" devices="tripinfo_SN_153" vType="car" speedFactor="0.90" vaporized=""/>
    <tripinfo id="EW_182" depart="182.00" departLane="4i_0" departPos="10.10" departSpeed="0.00" departDelay="0.00" arrival="355.00" arrivalLane="3o_0" arrivalPos="492.80" arrivalSpeed="11.08" duration="173.00" routeLength="989.90" waitingTime="71.00" waitingCount="4" stopTime="0.00" timeLoss="103.27" rerouteNo="0" devices="tripinfo_EW_182" vType="truck" speedFactor="1.01" vaporized=""/>
    <tripinfo id="WE_282" depart="282.00" departLane="1i_0" departPos="4.10" departSpeed="0.00" departDelay="0.00" arrival="357.00" arrivalLane="3o_0" arrivalPos="492.80" arrivalSpeed="11.55" duration="75.00" routeLength="990.53" waitingTime="0.00" waitingCount="0" stopTime="0.00" timeLoss="13.65" rerouteNo="0" devices="tripinfo_WE_282" vType="car" speedFactor="1.15" vaporized=""/>
    <tripinfo id="NS_276" depart="276.00" departLane="2i_0" departPos="4.10" departSpeed="0.00" departDelay="0.00" arrival="359.00" arrivalLane="1o_0" arrivalPos="492.80" arrivalSpeed="10.65" duration="83.00" routeLength="995.90" waitingTime="0.00" waitingCount="0" stopTime="0.00" timeLoss="12.97" rerouteNo="0" devices="tripinfo_NS_276" vType="car" speedFactor="1.02" vaporized=""/>
    <tripinfo id="SN_154" depart="156.00" departLane="3i_0" departPos="4.10" departSpeed="0.00" departDelay="2.00" arrival="360.00" arrivalLane="2o_0" arrivalPos="492.80" arrivalSpeed="9.57" duration="204.00" routeLength="990.53" waitingTime="80.00" waitingCount="6" stopTime="0.00" timeLoss="123.60" rerouteNo="0" devices="tripinfo_SN_154" vType="car" speedFactor="0.88" vaporized=""/>
    <tripinfo id="SN_167" depart="167.00" departLane="3i_0" departPos="4.10" departSpeed="0.00" departDelay="0.00" arrival="362.00" arrivalLane="2o_0" arrivalPos="492.80" arrivalSpeed="11.29" duration="195.00" routeLength="990.53" waitingTime="70.00" waitingCount="6" stopTime="0.00" timeLoss="125.40" rerouteNo="0" devices="tripinfo_SN_167" vType="car" speedFactor="1.02" vaporized=""/>
    <tripinfo id="EW_185" depart="186.00" departLane="4i_0" departPos="4.10" departSpeed="0.00" departDelay="1.00" arrival="364.00" arrivalLane="2o_0" arrivalPos="492.80" arrivalSpeed="11.37" duration="178.00" routeLength="995.70" waitingTime="67.00" waitingCount="5" stopTime="0.00" timeLoss="112.18" rerouteNo="0" devices="tripinfo_EW_185" vType="car" speedFactor="1.08" vaporized=""/>
    <tripinfo id="NS_279" depart="279.00" departLane="2i_0" departPos="10.10" departSpeed="0.00" departDelay="0.00" arrival="364.00" arrivalLane="1o_0" arrivalPos="492.80" arrivalSpeed="10.37" duration="85.00" routeLength="989.90" waitingTime="0.00" waitingCount="0" stopTime="0.00" timeLoss="13.21" rerouteNo="0" devices="tripinfo_NS_279" vType="truck" speedFactor="0.98" vaporized=""/>
    <tripinfo id="EW_199" depart="199.00" departLane="4i_0" departPos="4.10" departSpeed="0.00" departDelay="0.00" arrival="374.00" arrivalLane="1o_0" arrivalPos="492.80" arrivalSpeed="10.09" duration="175.00" routeLength="990.53" waitingTime="66.00" waitingCount="6" stopTime="0.00" timeLoss="103.27" rerouteNo="0" devices="tripinfo_EW_199" vType="car" speedFactor="0.99" vaporized=""/>
    <tripinfo id="SN_187" depart="188.00" departLane="3i_0" departPos="4.10" departSpeed="0.00" departDelay="1.00" arrival="376.00" arrivalLane="4o_0" arrivalPos="492.80" arrivalSpeed="12.42" duration="188.00" routeLength="995.90" waitingTime="62.00" waitingCount="5" stopTime="0.00" timeLoss="124.19" rerouteNo="0" devices="tripinfo_SN_187" vType="car" speedFactor="1.12" vaporized=""/>
    <tripinfo id="SN_179" depart="179.00" departLane="3i_0" departPos="4.10" departSpeed="0.00" departDelay="0.00" arrival="378.00" arrivalLane="2o_0" arrivalPos="492.80" arrivalSpeed="9.08" duration="199.00" routeLength="990.53" waitingTime="68.00" waitingCount="5" stopTime="0.00" timeLoss="120.34" rerouteNo="0" devices="tripinfo_SN_179" vType="car" speedFactor="0.90" vaporized=""/>
    <tripinfo id="SN_181" depart="182.00" departLane="3i_0" departPos="4.10" departSpeed="0.00" departDelay="1.00" arrival="380.00" arrivalLane="2o_0" arrivalPos="492.80" arrivalSpeed="11.93" duration="198.00" routeLength="990.53" waitingTime="67.00" waitingCount="5" stopTime="0.00" timeLoss="135.70" rerouteNo="0" devices="tripinfo_SN_181" vType="car" speedFactor="1.14" vaporized=""/>
    <tripinfo id="EW_212" depart="212.00" departLane="4i_0" departPos="4.10" departSpeed="0.00" departDelay="0.00" arrival="381.00" arrivalLane="2o_0" arrivalPos="492.80" arrivalSpeed="11.43" duration="169.00" routeLength="995.70" waitingTime="61.00" waitingCount="4" stopTime="0.00" timeLoss="100.97" rerouteNo="0" devices="tripinfo_EW_212" vType="car" speedFactor="1.04" vaporized=""/>
    <tripinfo id="WE_294" depart="294.00" departLane="1i_0" departPos="4.10" departSpeed="0.00" departDelay="0.00" arrival="383.00" arrivalLane="2o_0" arrivalPos="492.80" arrivalSpeed="10.44" duration="89.00" routeLength="995.90" waitingTime="1.00" waitingCount="1" stopTime="0.00" timeLoss="18.23" rerouteNo="0" devices="tripinfo_WE_294" vType="car" speedFactor="1.00" vaporized=""/>
    <tripinfo id="WE_298" depart="298.00" departLane="1i_0" departPos="4.10" departSpeed="0.00" departDelay="0.00" arrival="385.00" arrivalLane="2o_0" arrivalPos="492.80" arrivalSpeed="10.47" duration="87.00" routeLength="995.90" waitingTime="0.00" waitingCount="0" stopTime="0.00" timeLoss="16.56" rerouteNo="0" devices="tripinfo_WE_298" vType="car" speedFactor="1.01" vaporized=""/>
    <tripinfo id="NS_295" depart="295.00" departLane="2i_0" departPos="4.10" departSpeed="0.00" departDelay="0.00" arrival="387.00" arrivalLane="3o_0" arrivalPos="492.80" arrivalSpeed="10.96" duration="92.00" routeLength="995.70" waitingTime="9.00" waitingCount="1" stopTime="0.00" timeLoss="23.77" rerouteNo="0" devices="tripinfo_NS_295" vType="car" speedFactor="1.04" vaporized=""/>