<?xml version="1.0" encoding="UTF-8"?>

<!-- generated on 2024-05-04 16:29:35 by Eclipse SUMO sumo Version 1.19.0
<configuration xmlns:xsi="http://www.w3.org/2001/XMLSchema-instance" xsi:noNamespaceSchemaLocation="http://sumo.dlr.de/xsd/sumoConfiguration.xsd">

    <input>
        <net-file value="working/./test5.net.xml"/>
        <route-files value="working/./gen_route.rou.xml"/>
    </input>

    <output>
        <tripinfo-output value="tripinfo_epi3.xml"/>
    </output>

    <report>
        <no-warnings value="true"/>
    </report>

    <traci_server>
        <remote-port value="50416"/>
    </traci_server>

</configuration>
-->

<tripinfos xmlns:xsi="http://www.w3.org/2001/XMLSchema-instance" xsi:noNamespaceSchemaLocation="http://sumo.dlr.de/xsd/tripinfo_file.xsd">
    <tripinfo id="EW_2" depart="2.00" departLane="4i_0" departPos="4.10" departSpeed="0.00" departDelay="0.00" arrival="86.00" arrivalLane="2o_0" arrivalPos="492.80" arrivalSpeed="10.89" duration="84.00" routeLength="995.70" waitingTime="3.00" waitingCount="1" stopTime="0.00" timeLoss="16.73" rerouteNo="0" devices="tripinfo_EW_2" vType="car" speedFactor="1.06" vaporized=""/>
    <tripinfo id="SN_3" depart="3.00" departLane="3i_0" departPos="4.10" departSpeed="0.00" departDelay="0.00" arrival="86.00" arrivalLane="4o_0" arrivalPos="492.80" arrivalSpeed="10.21" duration="83.00" routeLength="995.90" waitingTime="0.00" waitingCount="0" stopTime="0.00" timeLoss="7.74" rerouteNo="0" devices="tripinfo_SN_3" vType="car" speedFactor="0.94" vaporized=""/>
    <tripinfo id="SN_6" depart="6.00" departLane="3i_0" departPos="4.10" departSpeed="0.00" departDelay="0.00" arrival="88.00" arrivalLane="4o_0" arrivalPos="492.80" arrivalSpeed="10.81" duration="82.00" routeLength="995.90" waitingTime="0.00" waitingCount="0" stopTime="0.00" timeLoss="11.60" rerouteNo="0" devices="tripinfo_SN_6" vType="car" speedFactor="1.01" vaporized=""/>
    <tripinfo id="WE_11" depart="11.00" departLane="1i_0" departPos="4.10" departSpeed="0.00" departDelay="0.00" arrival="90.00" arrivalLane="2o_0" arrivalPos="492.80" arrivalSpeed="11.87" duration="79.00" routeLength="995.90" waitingTime="1.00" waitingCount="1" stopTime="0.00" timeLoss="13.77" rerouteNo="0" devices="tripinfo_WE_11" vType="car" speedFactor="1.08" vaporized=""/>
    <tripinfo id="NS_11" depart="11.00" departLane="2i_0" departPos="4.10" departSpeed="0.00" departDelay="0.00" arrival="93.00" arrivalLane="1o_0" arrivalPos="492.80" arrivalSpeed="10.51" duration="82.00" routeLength="995.90" waitingTime="0.00" waitingCount="0" stopTime="0.00" timeLoss="12.87" rerouteNo="0" devices="tripinfo_NS_11" vType="car" speedFactor="1.03" vaporized=""/>
    <tripinfo id="SN_15" depart="15.00" departLane="3i_0" departPos="4.10" departSpeed="0.00" departDelay="0.00" arrival="96.00" arrivalLane="4o_0" arrivalPos="492.80" arrivalSpeed="10.81" duration="81.00" routeLength="995.90" waitingTime="0.00" waitingCount="0" stopTime="0.00" timeLoss="12.69" rerouteNo="0" devices="tripinfo_SN_15" vType="car" speedFactor="1.05" vaporized=""/>
    <tripinfo id="EW_18" depart="18.00" departLane="4i_0" departPos="4.10" departSpeed="0.00" departDelay="0.00" arrival="102.00" arrivalLane="3o_0" arrivalPos="492.80" arrivalSpeed="9.43" duration="84.00" routeLength="995.90" waitingTime="0.00" waitingCount="0" stopTime="0.00" timeLoss="8.02" rerouteNo="0" devices="tripinfo_EW_18" vType="car" speedFactor="0.94" vaporized=""/>
    <tripinfo id="SN_26" depart="26.00" departLane="3i_0" departPos="4.10" departSpeed="0.00" departDelay="0.00" arrival="103.00" arrivalLane="4o_0" arrivalPos="492.80" arrivalSpeed="10.12" duration="77.00" routeLength="995.90" waitingTime="0.00" waitingCount="0" stopTime="0.00" timeLoss="7.66" rerouteNo="0" devices="tripinfo_SN_26" vType="car" speedFactor="1.03" vaporized=""/>
    <tripinfo id="EW_27" depart="27.00" departLane="4i_0" departPos="4.10" departSpeed="0.00" departDelay="0.00" arrival="107.00" arrivalLane="2o_0" arrivalPos="492.80" arrivalSpeed="10.38" duration="80.00" routeLength="995.70" waitingTime="0.00" waitingCount="0" stopTime="0.00" timeLoss="12.00" rerouteNo="0" devices="tripinfo_EW_27" vType="car" speedFactor="1.05" vaporized=""/>
    <tripinfo id="SN_17" depart="18.00" departLane="3i_0" departPos="4.10" departSpeed="0.00" departDelay="1.00" arrival="109.00" arrivalLane="1o_0" arrivalPos="492.80" arrivalSpeed="9.19" duration="91.00" routeLength="995.70" waitingTime="0.00" waitingCount="0" stopTime="0.00" timeLoss="10.88" rerouteNo="0" devices="tripinfo_SN_17" vType="car" speedFactor="0.89" vaporized=""/>
    <tripinfo id="WE_12" depart="14.00" departLane="1i_0" departPos="4.10" departSpeed="0.00" departDelay="2.00" arrival="112.00" arrivalLane="3o_0" arrivalPos="492.80" arrivalSpeed="8.63" duration="98.00" routeLength="990.53" waitingTime="1.00" waitingCount="1" stopTime="0.00" timeLoss="12.74" rerouteNo="0" devices="tripinfo_WE_12" vType="car" speedFactor="0.83" vaporized=""/>
    <tripinfo id="NS_22" depart="22.00" departLane="2i_0" departPos="4.10" departSpeed="0.00" departDelay="0.00" arrival="113.00" arrivalLane="3o_0" arrivalPos="492.80" arrivalSpeed="10.38" duration="91.00" routeLength="995.70" waitingTime="12.00" waitingCount="1" stopTime="0.00" timeLoss="26.38" rerouteNo="0" devices="tripinfo_NS_22" vType="car" speedFactor="1.09" vaporized=""/>
    <tripinfo id="EW_22" depart="22.00" departLane="4i_0" departPos="4.10" departSpeed="0.00" departDelay="0.00" arrival="114.00" arrivalLane="1o_0" arrivalPos="492.80" arrivalSpeed="8.28" duration="92.00" routeLength="990.53" waitingTime="0.00" waitingCount="0" stopTime="0.00" timeLoss="9.66" rerouteNo="0" devices="tripinfo_EW_22" vType="car" speedFactor="0.86" vaporized=""/>
    <tripinfo id="EW_29" depart="29.00" departLane="4i_0" departPos="4.10" departSpeed="0.00" departDelay="0.00" arrival="116.00" arrivalLane="1o_0" arrivalPos="492.80" arrivalSpeed="12.03" duration="87.00" routeLength="990.53" waitingTime="1.00" waitingCount="1" stopTime="0.00" timeLoss="23.52" rerouteNo="0" devices="tripinfo_EW_29" vType="car" speedFactor="1.12" vaporized=""/>
    <tripinfo id="NS_30" depart="30.00" departLane="2i_0" departPos="4.10" departSpeed="0.00" departDelay="0.00" arrival="120.00" arrivalLane="4o_0" arrivalPos="492.80" arrivalSpeed="10.04" duration="90.00" routeLength="990.53" waitingTime="2.00" waitingCount="2" stopTime="0.00" timeLoss="19.02" rerouteNo="0" devices="tripinfo_NS_30" vType="car" speedFactor="0.99" vaporized=""/>
    <tripinfo id="EW_34" depart="34.00" departLane="4i_0" departPos="4.10" departSpeed="0.00" departDelay="0.00" arrival="123.00" arrivalLane="1o_0" arrivalPos="492.80" arrivalSpeed="9.56" duration="89.00" routeLength="990.53" waitingTime="0.00" waitingCount="0" stopTime="0.00" timeLoss="8.30" rerouteNo="0" devices="tripinfo_EW_34" vType="car" speedFactor="0.88" vaporized=""/>
    <tripinfo id="WE_34" depart="34.00" departLane="1i_0" departPos="4.10" departSpeed="0.00" departDelay="0.00" arrival="124.00" arrivalLane="2o_0" arrivalPos="492.80" arrivalSpeed="10.08" duration="90.00" routeLength="995.90" waitingTime="1.00" waitingCount="1" stopTime="0.00" timeLoss="13.39" rerouteNo="0" devices="tripinfo_WE_34" vType="car" speedFactor="0.93" vaporized=""/>
    <tripinfo id="WE_43" depart="43.00" departLane="1i_0" departPos="4.10" departSpeed="0.00" departDelay="0.00" arrival="130.00" arrivalLane="3o_0" arrivalPos="492.80" arrivalSpeed="9.83" duration="87.00" routeLength="990.53" waitingTime="1.00" waitingCount="1" stopTime="0.00" timeLoss="11.69" rerouteNo="0" devices="tripinfo_WE_43" vType="car" speedFactor="0.94" vaporized=""/>
    <tripinfo id="SN_47" depart="47.00" departLane="3i_0" departPos="4.10" departSpeed="0.00" departDelay="0.00" arrival="131.00" arrivalLane="2o_0" arrivalPos="492.80" arrivalSpeed="10.26" duration="84.00" routeLength="990.53" waitingTime="0.00" waitingCount="0" stopTime="0.00" timeLoss="8.48" rerouteNo="0" devices="tripinfo_SN_47" vType="car" speedFactor="0.94" vaporized=""/>
    <tripinfo id="SN_60" depart="60.00" departLane="3i_0" departPos="4.10" departSpeed="0.00" departDelay="0.00" arrival="133.00" arrivalLane="2o_0" arrivalPos="492.80" arrivalSpeed="11.97" duration="73.00" routeLength="990.53" waitingTime="1.00" waitingCount="1" stopTime="0.00" timeLoss="11.75" rerouteNo="0" devices="tripinfo_SN_60" vType="car" speedFactor="1.16" vaporized=""/>
    <tripinfo id="EW_65" depart="65.00" departLane="4i_0" departPos="4.10" departSpeed="0.00" departDelay="0.00" arrival="142.00" arrivalLane="1o_0" arrivalPos="492.80" arrivalSpeed="11.13" duration="77.00" routeLength="990.53" waitingTime="0.00" waitingCount="0" stopTime="0.00" timeLoss="6.87" rerouteNo="0" devices="tripinfo_EW_65" vType="car" speedFactor="1.01" vaporized=""/>
    <tripinfo id="WE_64" depart="64.00" departLane="1i_0" departPos="4.10" departSpeed="0.00" departDelay="0.00" arrival="149.00" arrivalLane="4o_0" arrivalPos="492.80" arrivalSpeed="10.23" duration="85.00" routeLength="995.70" waitingTime="1.00" waitingCount="1" stopTime="0.00" timeLoss="15.32" rerouteNo="0" devices="tripinfo_WE_64" vType="car" speedFactor="1.02" vaporized=""/>
    <tripinfo id="WE_70" depart="70.00" departLane="1i_0" departPos="4.10" departSpeed="0.00" departDelay="0.00" arrival="153.00" arrivalLane="2o_0" arrivalPos="492.80" arrivalSpeed="10.69" duration="83.00" routeLength="995.90" waitingTime="0.00" waitingCount="0" stopTime="0.00" timeLoss="10.29" rerouteNo="0" devices="tripinfo_WE_70" vType="car" speedFactor="0.97" vaporized=""/>
    <tripinfo id="WE_74" depart="74.00" departLane="1i_0" departPos="4.10" departSpeed="0.00" departDelay="0.00" arrival="167.00" arrivalLane="4o_0" arrivalPos="492.80" arrivalSpeed="9.18" duration="93.00" routeLength="995.70" waitingTime="0.00" waitingCount="0" stopTime="0.00" timeLoss="13.61" rerouteNo="0" devices="tripinfo_WE_74" vType="car" speedFactor="0.89" vaporized=""/>
    <tripinfo id="SN_84" depart="84.00" departLane="3i_0" departPos="4.10" departSpeed="0.00" departDelay="0.00" arrival="170.00" arrivalLane="4o_0" arrivalPos="492.80" arrivalSpeed="9.40" duration="86.00" routeLength="995.90" waitingTime="0.00" waitingCount="0" stopTime="0.00" timeLoss="8.66" rerouteNo="0" devices="tripinfo_SN_84" vType="car" speedFactor="0.92" vaporized=""/>
    <tripinfo id="SN_89" depart="89.00" departLane="3i_0" departPos="10.10" departSpeed="0.00" departDelay="0.00" arrival="171.00" arrivalLane="2o_0" arrivalPos="492.80" arrivalSpeed="11.66" duration="82.00" routeLength="984.53" waitingTime="0.00" waitingCount="0" stopTime="0.00" timeLoss="14.62" rerouteNo="0" devices="tripinfo_SN_89" vType="truck" speedFactor="1.07" vaporized=""/>
    <tripinfo id="WE_84" depart="84.00" departLane="1i_0" departPos="4.10" departSpeed="0.00" departDelay="0.00" arrival="182.00" arrivalLane="4o_0" arrivalPos="492.80" arrivalSpeed="8.89" duration="98.00" routeLength="995.70" waitingTime="2.00" waitingCount="1" stopTime="0.00" timeLoss="16.91" rerouteNo="0" devices="tripinfo_WE_84" vType="car" speedFactor="0.87" vaporized=""/>
    <tripinfo id="WE_88" depart="88.00" departLane="1i_0" departPos="4.10" departSpeed="0.00" departDelay="0.00" arrival="183.00" arrivalLane="3o_0" arrivalPos="492.80" arrivalSpeed="9.60" duration="95.00" routeLength="990.53" waitingTime="3.00" waitingCount="2" stopTime="0.00" timeLoss="20.83" rerouteNo="0" devices="tripinfo_WE_88" vType="car" speedFactor="0.95" vaporized=""/>
    <tripinfo id="SN_90" depart="93.00" departLane="3i_0" departPos="4.10" departSpeed="0.00" departDelay="3.00" arrival="184.00" arrivalLane="4o_0" arrivalPos="492.80" arrivalSpeed="9.87" duration="91.00" routeLength="995.90" waitingTime="0.00" waitingCount="0" stopTime="0.00" timeLoss="14.65" rerouteNo="0" devices="tripinfo_SN_90" vType="car" speedFactor="0.93" vaporized=""/>
    <tripinfo id="EW_102" depart="103.00" departLane="4i_0" departPos="4.10" departSpeed="0.00" departDelay="1.00" arrival="185.00" arrivalLane="1o_0" arrivalPos="492.80" arrivalSpeed="11.11" duration="82.00" routeLength="990.53" waitingTime="0.00" waitingCount="0" stopTime="0.00" timeLoss="11.60" rerouteNo="0" devices="tripinfo_EW_102" vType="car" speedFactor="1.01" vaporized=""/>
    <tripinfo id="NS_102" depart="102.00" departLane="2i_0" departPos="4.10" departSpeed="0.00" departDelay="0.00" arrival="185.00" arrivalLane="4o_0" arrivalPos="492.80" arrivalSpeed="12.46" duration="83.00" routeLength="990.53" waitingTime="0.00" waitingCount="0" stopTime="0.00" timeLoss="23.03" rerouteNo="0" devices="tripinfo_NS_102" vType="car" speedFactor="1.17" vaporized=""/>
    <tripinfo id="WE_99" depart="99.00" departLane="1i_0" departPos="4.10" departSpeed="0.00" departDelay="0.00" arrival="187.00" arrivalLane="4o_0" arrivalPos="492.80" arrivalSpeed="12.77" duration="88.00" routeLength="995.70" waitingTime="3.00" waitingCount="2" stopTime="0.00" timeLoss="27.97" rerouteNo="0" devices="tripinfo_WE_99" vType="car" speedFactor="1.18" vaporized=""/>
    <tripinfo id="EW_77" depart="77.00" departLane="4i_0" departPos="10.10" departSpeed="0.00" departDelay="0.00" arrival="188.00" arrivalLane="2o_0" arrivalPos="492.80" arrivalSpeed="9.77" duration="111.00" routeLength="989.70" waitingTime="14.00" waitingCount="1" stopTime="0.00" timeLoss="33.45" rerouteNo="0" devices="tripinfo_EW_77" vType="truck" speedFactor="0.91" vaporized=""/>
    <tripinfo id="NS_104" depart="107.00" departLane="2i_0" departPos="4.10" departSpeed="0.00" departDelay="3.00" arrival="188.00" arrivalLane="3o_0" arrivalPos="492.80" arrivalSpeed="10.48" duration="81.00" routeLength="995.70" waitingTime="0.00" waitingCount="0" stopTime="0.00" timeLoss="9.89" rerouteNo="0" devices="tripinfo_NS_104" vType="car" speedFactor="0.99" vaporized=""/>
    <tripinfo id="WE_101" depart="102.00" departLane="1i_0" departPos="4.10" departSpeed="0.00" departDelay="1.00" arrival="189.00" arrivalLane="4o_0" arrivalPos="492.80" arrivalSpeed="12.03" duration="87.00" routeLength="995.70" waitingTime="2.00" waitingCount="2" stopTime="0.00" timeLoss="25.47" rerouteNo="0" devices="tripinfo_WE_101" vType="car" speedFactor="1.15" vaporized=""/>
    <tripinfo id="SN_111" depart="113.00" departLane="3i_0" departPos="4.10" departSpeed="0.00" departDelay="2.00" arrival="190.00" arrivalLane="2o_0" arrivalPos="492.80" arrivalSpeed="11.91" duration="77.00" routeLength="990.53" waitingTime="0.00" waitingCount="0" stopTime="0.00" timeLoss="13.05" rerouteNo="0" devices="tripinfo_SN_111" vType="car" speedFactor="1.10" vaporized=""/>
    <tripinfo id="NS_105" depart="110.00" departLane="2i_0" departPos="4.10" departSpeed="0.00" departDelay="5.00" arrival="191.00" arrivalLane="3o_0" arrivalPos="492.80" arrivalSpeed="11.28" duration="81.00" routeLength="995.70" waitingTime="0.00" waitingCount="0" stopTime="0.00" timeLoss="11.62" rerouteNo="0" devices="tripinfo_NS_105" vType="car" speedFactor="1.02" vaporized=""/>
    <tripinfo id="SN_108" depart="108.00" departLane="3i_0" departPos="4.10" departSpeed="0.00" departDelay="0.00" arrival="191.00" arrivalLane="1o_0" arrivalPos="492.80" arrivalSpeed="9.78" duration="83.00" routeLength="995.70" waitingTime="0.00" waitingCount="0" stopTime="0.00" timeLoss="10.13" rerouteNo="0" devices="tripinfo_SN_108" vType="car" speedFactor="0.97" vaporized=""/>
    <tripinfo id="WE_110" depart="110.00" departLane="1i_0" departPos="4.10" departSpeed="0.00" departDelay="0.00" arrival="193.00" arrivalLane="2o_0" arrivalPos="492.80" arrivalSpeed="12.96" duration="83.00" routeLength="995.90" waitingTime="2.00" waitingCount="2" stopTime="0.00" timeLoss="22.76" rerouteNo="0" devices="tripinfo_WE_110" vType="car" speedFactor="1.18" vaporized=""/>
    <tripinfo id="EW_122" depart="122.00" departLane="4i_0" departPos="4.10" departSpeed="0.00" departDelay="0.00" arrival="198.00" arrivalLane="1o_0" arrivalPos="492.80" arrivalSpeed="10.30" duration="76.00" routeLength="990.53" waitingTime="0.00" waitingCount="0" stopTime="0.00" timeLoss="7.43" rerouteNo="0" devices="tripinfo_EW_122" vType="car" speedFactor="1.03" vaporized=""/>
    <tripinfo id="EW_129" depart="129.00" departLane="4i_0" departPos="4.10" departSpeed="0.00" departDelay="0.00" arrival="204.00" arrivalLane="3o_0" arrivalPos="492.80" arrivalSpeed="10.84" duration="75.00" routeLength="995.90" waitingTime="0.00" waitingCount="0" stopTime="0.00" timeLoss="9.89" rerouteNo="0" devices="tripinfo_EW_129" vType="car" speedFactor="1.09" vaporized=""/>
    <tripinfo id="WE_113" depart="114.00" departLane="1i_0" departPos="4.10" departSpeed="0.00" departDelay="1.00" arrival="212.00" arrivalLane="2o_0" arrivalPos="492.80" arrivalSpeed="8.94" duration="98.00" routeLength="995.90" waitingTime="1.00" waitingCount="1" stopTime="0.00" timeLoss="19.02" rerouteNo="0" devices="tripinfo_WE_113" vType="car" speedFactor="0.90" vaporized=""/>
    <tripinfo id="SN_127" depart="127.00" departLane="3i_0" departPos="4.10" departSpeed="0.00" departDelay="0.00" arrival="214.00" arrivalLane="2o_0" arrivalPos="492.80" arrivalSpeed="10.14" duration="87.00" routeLength="990.53" waitingTime="0.00" waitingCount="0" stopTime="0.00" timeLoss="12.78" rerouteNo="0" devices="tripinfo_SN_127" vType="car" speedFactor="0.96" vaporized=""/>
    <tripinfo id="WE_133" depart="133.00" departLane="1i_0" departPos="4.10" departSpeed="0.00" departDelay="0.00" arrival="215.00" arrivalLane="2o_0" arrivalPos="492.80" arrivalSpeed="11.43" duration="82.00" routeLength="995.90" waitingTime="0.00" waitingCount="0" stopTime="0.00" timeLoss="14.14" rerouteNo="0" devices="tripinfo_WE_133" vType="car" speedFactor="1.04" vaporized=""/>
    <tripinfo id="EW_134" depart="134.00" departLane="4i_0" departPos="4.10" departSpeed="0.00" departDelay="0.00" arrival="217.00" arrivalLane="2o_0" arrivalPos="492.80" arrivalSpeed="11.35" duration="83.00" routeLength="995.70" waitingTime="0.00" waitingCount="0" stopTime="0.00" timeLoss="17.76" rerouteNo="0" devices="tripinfo_EW_134" vType="car" speedFactor="1.09" vaporized=""/>
    <tripinfo id="EW_135" depart="137.00" departLane="4i_0" departPos="4.10" departSpeed="0.00" departDelay="2.00" arrival="217.00" arrivalLane="3o_0" arrivalPos="492.80" arrivalSpeed="10.68" duration="80.00" routeLength="995.90" waitingTime="0.00" waitingCount="0" stopTime="0.00" timeLoss="8.70" rerouteNo="0" devices="tripinfo_EW_135" vType="car" speedFactor="1.00" vaporized=""/>
    <tripinfo id="SN_131" depart="131.00" departLane="3i_0" departPos="4.10" departSpeed="0.00" departDelay="0.00" arrival="226.00" arrivalLane="1o_0" arrivalPos="492.80" arrivalSpeed="11.12" duration="95.00" routeLength="995.70" waitingTime="11.00" waitingCount="1" stopTime="0.00" timeLoss="26.62" rerouteNo="0" devices="tripinfo_SN_131" vType="car" speedFactor="1.04" vaporized=""/>
    <tripinfo id="SN_135" depart="135.00" departLane="3i_0" departPos="4.10" departSpeed="0.00" departDelay="0.00" arrival="235.00" arrivalLane="2o_0" arrivalPos="492.80" arrivalSpeed="8.97" duration="100.00" routeLength="990.53" waitingTime="8.00" waitingCount="1" stopTime="0.00" timeLoss="21.32" rerouteNo="0" devices="tripinfo_SN_135" vType="car" speedFactor="0.90" vaporized=""/>
    <tripinfo id="NS_137" depart="137.00" departLane="2i_0" departPos="4.10" departSpeed="0.00" departDelay="0.00" arrival="235.00" arrivalLane="4o_0" arrivalPos="492.80" arrivalSpeed="8.96" duration="98.00" routeLength="990.53" waitingTime="3.00" waitingCount="1" stopTime="0.00" timeLoss="17.96" rerouteNo="0" devices="tripinfo_NS_137" vType="car" speedFactor="0.88" vaporized=""/>
    <tripinfo id="EW_166" depart="167.00" departLane="4i_0" departPos="4.10" departSpeed="0.00" departDelay="1.00" arrival="236.00" arrivalLane="1o_0" arrivalPos="492.80" arrivalSpeed="11.70" duration="69.00" routeLength="990.53" waitingTime="0.00" waitingCount="0" stopTime="0.00" timeLoss="7.33" rerouteNo="0" devices="tripinfo_EW_166" vType="car" speedFactor="1.14" vaporized=""/>
    <tripinfo id="NS_142" depart="142.00" departLane="2i_0" departPos="4.10" departSpeed="0.00" departDelay="0.00" arrival="243.00" arrivalLane="4o_0" arrivalPos="492.80" arrivalSpeed="8.33" duration="101.00" routeLength="990.53" waitingTime="1.00" waitingCount="1" stopTime="0.00" timeLoss="18.27" rerouteNo="0" devices="tripinfo_NS_142" vType="car" speedFactor="0.85" vaporized=""/>
    <tripinfo id="WE_162" depart="162.00" departLane="1i_0" departPos="4.10" departSpeed="0.00" departDelay="0.00" arrival="243.00" arrivalLane="3o_0" arrivalPos="492.80" arrivalSpeed="11.63" duration="81.00" routeLength="990.53" waitingTime="1.00" waitingCount="1" stopTime="0.00" timeLoss="16.45" rerouteNo="0" devices="tripinfo_WE_162" vType="car" speedFactor="1.10" vaporized=""/>
    <tripinfo id="SN_157" depart="157.00" departLane="3i_0" departPos="10.10" departSpeed="0.00" departDelay="0.00" arrival="245.00" arrivalLane="1o_0" arrivalPos="492.80" arrivalSpeed="11.46" duration="88.00" routeLength="989.70" waitingTime="0.00" waitingCount="0" stopTime="0.00" timeLoss="21.70" rerouteNo="0" devices="tripinfo_SN_157" vType="truck" speedFactor="1.08" vaporized=""/>
    <tripinfo id="EW_167" depart="170.00" departLane="4i_0" departPos="4.10" departSpeed="0.00" departDelay="3.00" arrival="251.00" arrivalLane="1o_0" arrivalPos="492.80" arrivalSpeed="11.31" duration="81.00" routeLength="990.53" waitingTime="0.00" waitingCount="0" stopTime="0.00" timeLoss="12.11" rerouteNo="0" devices="tripinfo_EW_167" vType="car" speedFactor="1.02" vaporized=""/>
    <tripinfo id="NS_159" depart="159.00" departLane="2i_0" departPos="4.10" departSpeed="0.00" departDelay="0.00" arrival="258.00" arrivalLane="4o_0" arrivalPos="492.80" arrivalSpeed="10.88" duration="99.00" routeLength="990.53" waitingTime="9.00" waitingCount="2" stopTime="0.00" timeLoss="29.51" rerouteNo="0" devices="tripinfo_NS_159" vType="car" speedFactor="1.02" vaporized=""/>
    <tripinfo id="SN_164" depart="164.00" departLane="3i_0" departPos="4.10" departSpeed="0.00" departDelay="0.00" arrival="260.00" arrivalLane="1o_0" arrivalPos="492.80" arrivalSpeed="9.36" duration="96.00" routeLength="995.70" waitingTime="1.00" waitingCount="1" stopTime="0.00" timeLoss="17.31" rerouteNo="0" devices="tripinfo_SN_164" vType="car" speedFactor="0.90" vaporized=""/>
    <tripinfo id="EW_172" depart="172.00" departLane="4i_0" departPos="4.10" departSpeed="0.00" departDelay="0.00" arrival="262.00" arrivalLane="2o_0" arrivalPos="492.80" arrivalSpeed="9.95" duration="90.00" routeLength="995.70" waitingTime="0.00" waitingCount="0" stopTime="0.00" timeLoss="16.96" rerouteNo="0" devices="tripinfo_EW_172" vType="car" speedFactor="0.97" vaporized=""/>
    <tripinfo id="WE_177" depart="177.00" departLane="1i_0" departPos="4.10" departSpeed="0.00" departDelay="0.00" arrival="264.00" arrivalLane="4o_0" arrivalPos="492.80" arrivalSpeed="11.26" duration="87.00" routeLength="995.70" waitingTime="4.00" waitingCount="2" stopTime="0.00" timeLoss="17.28" rerouteNo="0" devices="tripinfo_WE_177" vType="car" speedFactor="1.02" vaporized=""/>
    <tripinfo id="NS_154" depart="154.00" departLane="2i_0" departPos="4.10" departSpeed="0.00" departDelay="0.00" arrival="266.00" arrivalLane="1o_0" arrivalPos="492.80" arrivalSpeed="8.74" duration="112.00" routeLength="995.90" waitingTime="12.00" waitingCount="3" stopTime="0.00" timeLoss="29.05" rerouteNo="0" devices="tripinfo_NS_154" vType="car" speedFactor="0.85" vaporized=""/>
    <tripinfo id="SN_172" depart="172.00" departLane="3i_0" departPos="4.10" departSpeed="0.00" departDelay="0.00" arrival="268.00" arrivalLane="1o_0" arrivalPos="492.80" arrivalSpeed="11.23" duration="96.00" routeLength="995.70" waitingTime="0.00" waitingCount="0" stopTime="0.00" timeLoss="30.10" rerouteNo="0" devices="tripinfo_SN_172" vType="car" speedFactor="1.08" vaporized=""/>
    <tripinfo id="WE_178" depart="179.00" departLane="1i_0" departPos="4.10" departSpeed="0.00" departDelay="1.00" arrival="268.00" arrivalLane="3o_0" arrivalPos="492.80" arrivalSpeed="9.90" duration="89.00" routeLength="990.53" waitingTime="1.00" waitingCount="1" stopTime="0.00" timeLoss="17.54" rerouteNo="0" devices="tripinfo_WE_178" vType="car" speedFactor="0.99" vaporized=""/>
    <tripinfo id="NS_162" depart="163.00" departLane="2i_0" departPos="10.10" departSpeed="0.00" departDelay="1.00" arrival="270.00" arrivalLane="1o_0" arrivalPos="492.80" arrivalSpeed="11.08" duration="107.00" routeLength="989.90" waitingTime="8.00" waitingCount="2" stopTime="0.00" timeLoss="36.70" rerouteNo="0" devices="tripinfo_NS_162" vType="truck" speedFactor="1.00" vaporized=""/>
    <tripinfo id="SN_180" depart="180.00" departLane="3i_0" departPos="10.10" departSpeed="0.00" departDelay="0.00" arrival="279.00" arrivalLane="4o_0" arrivalPos="492.80" arrivalSpeed="9.91" duration="99.00" routeLength="989.90" waitingTime="3.00" waitingCount="1" stopTime="0.00" timeLoss="24.04" rerouteNo="0" devices="tripinfo_SN_180" vType="truck" speedFactor="0.94" vaporized=""/>
    <tripinfo id="NS_175" depart="175.00" departLane="2i_0" departPos="4.10" departSpeed="0.00" departDelay="0.00" arrival="283.00" arrivalLane="3o_0" arrivalPos="492.80" arrivalSpeed="11.66" duration="108.00" routeLength="995.70" waitingTime="10.00" waitingCount="3" stopTime="0.00" timeLoss="44.61" rerouteNo="0" devices="tripinfo_NS_175" vType="car" speedFactor="1.12" vaporized=""/>
    <tripinfo id="WE_183" depart="183.00" departLane="1i_0" departPos="4.10" departSpeed="0.00" departDelay="0.00" arrival="285.00" arrivalLane="4o_0" arrivalPos="492.80" arrivalSpeed="9.90" duration="102.00" routeLength="995.70" waitingTime="4.00" waitingCount="1" stopTime="0.00" timeLoss="24.35" rerouteNo="0" devices="tripinfo_WE_183" vType="car" speedFactor="0.91" vaporized=""/>
    <tripinfo id="NS_164" depart="167.00" departLane="2i_0" departPos="4.10" departSpeed="0.00" departDelay="3.00" arrival="286.00" arrivalLane="1o_0" arrivalPos="492.80" arrivalSpeed="10.98" duration="119.00" routeLength="995.90" waitingTime="14.00" waitingCount="4" stopTime="0.00" timeLoss="47.98" rerouteNo="0" devices="tripinfo_NS_164" vType="car" speedFactor="1.00" vaporized=""/>
    <tripinfo id="SN_194" depart="194.00" departLane="3i_0" departPos="4.10" departSpeed="0.00" departDelay="0.00" arrival="287.00" arrivalLane="4o_0" arrivalPos="492.80" arrivalSpeed="10.75" duration="93.00" routeLength="995.90" waitingTime="1.00" waitingCount="1" stopTime="0.00" timeLoss="23.26" rerouteNo="0" devices="tripinfo_SN_194" vType="car" speedFactor="1.02" vaporized=""/>
    <tripinfo id="WE_186" depart="186.00" departLane="1i_0" departPos="4.10" departSpeed="0.00" departDelay="0.00" arrival="289.00" arrivalLane="4o_0" arrivalPos="492.80" arrivalSpeed="10.84" duration="103.00" routeLength="995.70" waitingTime="6.00" waitingCount="2" stopTime="0.00" timeLoss="34.85" rerouteNo="0" devices="tripinfo_WE_186" vType="car" speedFactor="1.04" vaporized=""/>
    <tripinfo id="SN_196" depart="197.00" departLane="3i_0" departPos="4.10" departSpeed="0.00" departDelay="1.00" arrival="291.00" arrivalLane="4o_0" arrivalPos="492.80" arrivalSpeed="11.39" duration="94.00" routeLength="995.90" waitingTime="6.00" waitingCount="1" stopTime="0.00" timeLoss="26.54" rerouteNo="0" devices="tripinfo_SN_196" vType="car" speedFactor="1.06" vaporized=""/>
    <tripinfo id="EW_204" depart="204.00" departLane="4i_0" departPos="10.10" departSpeed="0.00" departDelay="0.00" arrival="292.00" arrivalLane="3o_0" arrivalPos="492.80" arrivalSpeed="10.91" duration="88.00" routeLength="989.90" waitingTime="0.00" waitingCount="0" stopTime="0.00" timeLoss="16.78" rerouteNo="0" devices="tripinfo_EW_204" vType="truck" speedFactor="0.99" vaporized=""/>
    <tripinfo id="NS_180" depart="180.00" departLane="2i_0" departPos="4.10" departSpeed="0.00" departDelay="0.00" arrival="299.00" arrivalLane="1o_0" arrivalPos="492.80" arrivalSpeed="10.22" duration="119.00" routeLength="995.90" waitingTime="8.00" waitingCount="3" stopTime="0.00" timeLoss="43.64" rerouteNo="0" devices="tripinfo_NS_180" vType="car" speedFactor="0.94" vaporized=""/>
    <tripinfo id="EW_220" depart="220.00" departLane="4i_0" departPos="4.10" departSpeed="0.00" departDelay="0.00" arrival="302.00" arrivalLane="3o_0" arrivalPos="492.80" arrivalSpeed="10.49" duration="82.00" routeLength="995.90" waitingTime="0.00" waitingCount="0" stopTime="0.00" timeLoss="10.86" rerouteNo="0" devices="tripinfo_EW_220" vType="car" speedFactor="1.00" vaporized=""/>
    <tripinfo id="WE_196" depart="198.00" departLane="1i_0" departPos="4.10" departSpeed="0.00" departDelay="2.00" arrival="303.00" arrivalLane="4o_0" arrivalPos="492.80" arrivalSpeed="10.10" duration="105.00" routeLength="995.70" waitingTime="4.00" waitingCount="3" stopTime="0.00" timeLoss="29.51" rerouteNo="0" devices="tripinfo_WE_196" vType="car" speedFactor="0.94" vaporized=""/>
    <tripinfo id="EW_223" depart="223.00" departLane="4i_0" departPos="4.10" departSpeed="0.00" departDelay="0.00" arrival="305.00" arrivalLane="1o_0" arrivalPos="492.80" arrivalSpeed="10.40" duration="82.00" routeLength="990.53" waitingTime="0.00" waitingCount="0" stopTime="0.00" timeLoss="8.67" rerouteNo="0" devices="tripinfo_EW_223" vType="car" speedFactor="0.97" vaporized=""/>
    <tripinfo id="SN_210" depart="210.00" departLane="3i_0" departPos="4.10" departSpeed="0.00" departDelay="0.00" arrival="307.00" arrivalLane="1o_0" arrivalPos="492.80" arrivalSpeed="10.38" duration="97.00" routeLength="995.70" waitingTime="6.00" waitingCount="2" stopTime="0.00" timeLoss="25.19" rerouteNo="0" devices="tripinfo_SN_210" vType="car" speedFactor="0.98" vaporized=""/>
    <tripinfo id="WE_204" depart="204.00" departLane="1i_0" departPos="10.10" departSpeed="0.00" departDelay="0.00" arrival="308.00" arrivalLane="3o_0" arrivalPos="492.80" arrivalSpeed="10.71" duration="104.00" routeLength="984.53" waitingTime="3.00" waitingCount="2" stopTime="0.00" timeLoss="32.56" rerouteNo="0" devices="tripinfo_WE_204" vType="truck" speedFactor="0.98" vaporized=""/>